
Running Job 1 of 1 input
qchem input_18972.0 /aimm/scratch/qchem18972/ 1
/home/epif/aimm/qcprog.exe_s input_18972.0 /aimm/scratch/qchem18972/
8388608
                  Welcome to Q-Chem
     A Quantum Leap Into The Future Of Chemistry


 Q-Chem 6.1, Q-Chem, Inc., Pleasanton, CA (2023)

 E. Epifanovsky,  A. T. B. Gilbert,  Xintian Feng,  Joonho Lee,  Yuezhi Mao,  
 N. Mardirossian,  P. Pokhilko,  A. White,  M. Wormit,  M. P. Coons,  
 A. L. Dempwolff,  Zhengting Gan,  D. Hait,  P. R. Horn,  L. D. Jacobson,  
 I. Kaliman,  J. Kussmann,  A. W. Lange,  Ka Un Lao,  D. S. Levine,  Jie Liu,  
 S. C. McKenzie,  A. F. Morrison,  K. D. Nanda,  F. Plasser,  D. R. Rehn,  
 M. L. Vidal,  Zhi-Qiang You,  Ying Zhu,  B. Alam,  B. Albrecht,  
 A. Aldossary,  E. Alguire,  J. H. Andersen,  V. Athavale,  D. Barton,  
 K. Begam,  A. Behn,  N. Bellonzi,  Y. A. Bernard,  E. J. Berquist,  
 H. Burton,  A. Carreras,  K. Carter-Fenk,  Mathew Chow,  Romit Chakraborty,  
 Chandrima Chakravarty,  Junhan Chen,  A. D. Chien,  K. D. Closser,  
 V. Cofer-Shabica,  L. Cunha,  S. Dasgupta,  Jia Deng,  M. de Wergifosse,  
 M. Diedenhofen,  Hainam Do,  S. Ehlert,  Po-Tung Fang,  S. Fatehi,  
 Qingguo Feng,  T. Friedhoff,  Thomas Froitzheim,  B. Ganoe,  J. Gayvert,  
 Qinghui Ge,  G. Gidofalvi,  M. Gimferrer,  M. Goldey,  Montgomery Gray,  
 J. Gomes,  C. Gonzalez-Espinoza,  S. Gulania,  A. Gunina,  J. A. Gyamfi,  
 M. W. D. Hanson-Heine,  P. H. P. Harbach,  A. W. Hauser,  M. F. Herbst,  
 M. Hernandez Vera,  M. Hodecker,  Z. C. Holden,  S. Houck,  Xunkun Huang,  
 Kerwin Hui,  B. C. Huynh,  K. Ikeda,  M. Ivanov,  Hyunjun Ji,  Zuxin Jin,  
 Hanjie Jiang,  Subrata Jana,  B. Kaduk,  S. Kaehler,  R. Kang,  
 K. Khistyaev,  Jaehoon Kim,  Yongbin Kim,  P. Klunzinger,  Z. Koczor-Benda,  
 Joong Hoon Koh,  D. Kosenkov,  Saikiran Kotaru,  L. Koulias,  T. Kowalczyk,  
 C. M. Krauter,  K. Kue,  A. Kunitsa,  T. Kus,  A. Landau,  K. V. Lawler,  
 D. Lefrancois,  S. Lehtola,  Rain Li,  Shaozhi Li,  Yi-Pei Li,  
 Jiashu Liang,  M. Liebenthal,  Hung-Hsuan Lin,  You-Sheng Lin,  Fenglai Liu,  
 Kuan-Yu Liu,  Xiao Liu,  M. Loipersberger,  A. Luenser,  C. Malbon,  
 A. Manjanath,  P. Manohar,  E. Mansoor,  S. F. Manzer,  Shan-Ping Mao,  
 A. V. Marenich,  T. Markovich,  S. Mason,  F. Matz,  S. A. Maurer,  
 P. F. McLaughlin,  M. F. S. J. Menger,  J.-M. Mewes,  S. A. Mewes,  
 P. Morgante,  Mohammad Mostafanejad,  J. W. Mullinax,  K. J. Oosterbaan,  
 G. Paran,  V. Parravicini,  Alexander C. Paul,  Suranjan K. Paul,  
 F. Pavosevic,  Zheng Pei,  S. Prager,  E. I. Proynov,  E. Ramos,  B. Rana,  
 A. E. Rask,  A. Rettig,  R. M. Richard,  F. Rob,  E. Rossomme,  T. Scheele,  
 M. Scheurer,  M. Schneider,  P. E. Schneider,  Tim K. Schramm,  N. Sergueev,  
 S. M. Sharada,  M. Sharma,  Hengyuan Shen,  W. Skomorowski,  D. W. Small,  
 C. J. Stein,  Alistair J. Sterling,  Yingli Su,  Yu-Chuan Su,  
 E. J. Sundstrom,  J. Talbot,  Zhen Tao,  J. Thirman,  Hung-Yi Tsai,  
 T. Tsuchimochi,  N. M. Tubman,  C. Utku,  S. P. Veccham,  O. Vydrov,  
 J. Wenzel,  Jonathan Wong,  J. Witte,  A. Yamada,  Chou-Hsun Yang,  Kun Yao,  
 S. Yeganeh,  S. R. Yost,  A. Zech,  F. Zeller,  Igor Ying Zhang,  
 Xing Zhang,  Yu Zhang,  D. Zuev,  A. Aspuru-Guzik,  A. T. Bell,  
 N. A. Besley,  K. B. Bravaya,  B. R. Brooks,  D. Casanova,  Jeng-Da Chai,  
 Hsing-Ta Chen,  S. Coriani,  C. J. Cramer,  A. E. DePrince, III,  
 R. A. DiStasio Jr.,  A. Dreuw,  B. D. Dunietz,  T. R. Furlani,  
 W. A. Goddard III,  S. Grimme,  S. Hammes-Schiffer,  T. Head-Gordon,  
 W. J. Hehre,  Chao-Ping Hsu,  T.-C. Jagau,  Yousung Jung,  A. Klamt,  
 Jing Kong,  D. S. Lambrecht,  Xiangyuan Li,  WanZhen Liang,  N. J. Mayhall,  
 C. W. McCurdy,  J. B. Neaton,  T. Neudecker,  C. Ochsenfeld,  
 J. A. Parkhill,  R. Peverati,  V. A. Rassolov,  Haisheng Ren,  Yihan Shao,  
 L. V. Slipchenko,  R. P. Steele,  J. E. Subotnik,  A. J. W. Thom,  
 A. Tkatchenko,  D. G. Truhlar,  T. Van Voorhis,  Fan Wang,  
 T. A. Wesolowski,  K. B. Whaley,  H. L. Woodcock III,  P. M. Zimmerman,  
 S. Faraji,  P. M. W. Gill,  M. Head-Gordon,  J. M. Herbert,  A. I. Krylov

 Contributors to earlier versions of Q-Chem not listed above: 
 R. D. Adamson,  B. Austin,  R. Baer,  J. Baker,  G. J. O. Beran,  
 K. Brandhorst,  S. T. Brown,  E. F. C. Byrd,  Arup K. Chakraborty,  
 G. K. L. Chan,  Chun-Min Chang,  Yunqing Chen,  C.-L. Cheng,  
 Siu Hung Chien,  D. M. Chipman,  D. L. Crittenden,  H. Dachsel,  
 R. J. Doerksen,  A. D. Dutoi,  R. G. Edgar,  J. Fosso-Tande,  
 L. Fusti-Molnar,  D. Ghosh,  A. Ghysels,  A. Golubeva-Zadorozhnaya,  
 J. Gonthier,  M. S. Gordon,  S. R. Gwaltney,  G. Hawkins,  J. E. Herr,  
 A. Heyden,  S. Hirata,  E. G. Hohenstein,  G. Kedziora,  F. J. Keil,  
 C. Kelley,  Jihan Kim,  R. A. King,  R. Z. Khaliullin,  P. P. Korambath,  
 W. Kurlancheek,  A. Laurent,  A. M. Lee,  M. S. Lee,  S. V. Levchenko,  
 Ching Yeh Lin,  D. Liotard,  E. Livshits,  R. C. Lochan,  I. Lotan,  
 L. A. Martinez-Martinez,  P. E. Maslen,  N. Nair,  D. P. O'Neill,  
 D. Neuhauser,  E. Neuscamman,  C. M. Oana,  R. Olivares-Amaya,  R. Olson,  
 T. M. Perrine,  B. Peters,  P. A. Pieniazek,  A. Prociuk,  Y. M. Rhee,  
 J. Ritchie,  M. A. Rohrdanz,  E. Rosta,  N. J. Russ,  H. F. Schaefer III,  
 M. W. Schmidt,  N. E. Schultz,  S. Sharma,  N. Shenvi,  C. D. Sherrill,  
 A. C. Simmonett,  A. Sodt,  T. Stein,  D. Stuck,  K. S. Thanthiriwatte,  
 V. Vanovschi,  L. Vogt,  Tao Wang,  A. Warshel,  M. A. Watson,  
 C. F. Williams,  Q. Wu,  X. Xu,  Jun Yang,  W. Zhang,  Yan Zhao

   Please cite Q-Chem as follows:
  "Software for the frontiers of quantum chemistry:
   An overview of developments in the Q-Chem 5 package"
   J. Chem. Phys. 155, 084801 (2021)
   https://doi.org/10.1063/5.0055522 (open access)

 Q-Chem 6.1.1 for Intel X86 EM64T Linux

 Parts of Q-Chem use Armadillo 9.900.5 (Nocturnal Misbehaviour).
 http://arma.sourceforge.net/

 Q-Chem begins on Wed Apr 24 15:05:58 2024  

 Host: iqmol
0

     Scratch files written to /aimm/scratch/qchem18972//
 Jan1824 |scratch|qcdevops|jenkins|workspace|build_RNUM 6466   
 Processing $rem in /opt/qchem/qc611/config/preferences:
 Processing $rem in /home/epif/.qchemrc:

 Checking the input file for inconsistencies... 	...done.

--------------------------------------------------------------
User input:
--------------------------------------------------------------
$molecule
0 1
O   -3.3766163    1.6585271    0.0000000
O   -2.4450999    2.5882674    0.0000000
H   -4.2298630    2.1614695    0.0000000
H   -1.5918432    2.0853458    0.0000000
$end

$rem
BASIS  =  6-31G
GUI  =  2
JOB_TYPE  =  Optimization
METHOD  =  CAm-B3LYP
SCF_CONVERGENCE  =  8
$end

--------------------------------------------------------------
 ----------------------------------------------------------------
             Standard Nuclear Orientation (Angstroms)
    I     Atom           X                Y                Z
 ----------------------------------------------------------------
    1      O       0.6394577839    -0.1553392793     0.0000000000
    2      O      -0.6394556341     0.1553378814    -0.0000000000
    3      H       1.1073654599     0.7176116905    -0.0000000000
    4      H      -1.1073826587    -0.7176005078     0.0000000000
 ----------------------------------------------------------------
 Molecular Point Group                 Cs    NOp =  2
 Largest Abelian Subgroup              Cs    NOp =  2
 Nuclear Repulsion Energy =          39.09584047 hartrees
 There are        9 alpha and        9 beta electrons
 Requested basis set is 6-31G
 There are 10 shells and 22 basis functions

 Total QAlloc Memory Limit   8000 MB
 Mega-Array Size       188 MB
 MEM_STATIC part       192 MB

 -----------------------------------------------------------------------
                STARTING GEOMETRY OPTIMIZER USING LIBOPT3
                by Peter F. McLaughlin, Yu Zhang, Evgeny Epifanovsky
 -----------------------------------------------------------------------

              Initial Energy and Gradient Calculation
   -- Checking Topology for Ill-Behaving Coordinates --

 -------------------------------------------
   Coordinate       |  Removed | Additions 
 -------------------------------------------
	Bonds                     0          0
	Angles                    0          0
	Torsions                  0          0
	Co-Linear Type5s          0          0
	Co-Linear Type6s          0          0
 -------------------------------------------
     Done Checking Topology
 ----------------------------------------------------------------
             Standard Nuclear Orientation (Angstroms)
    I     Atom           X                Y                Z
 ----------------------------------------------------------------
    1      O       0.6394577839    -0.1553392793    -0.0000000000
    2      O      -0.6394556341     0.1553378814     0.0000000000
    3      H       1.1073654599     0.7176116905     0.0000000000
    4      H      -1.1073826587    -0.7176005078    -0.0000000000
 ----------------------------------------------------------------
 Molecular Point Group                 Cs    NOp =  2
 Largest Abelian Subgroup              Cs    NOp =  2
 Nuclear Repulsion Energy =          39.09584047 hartrees
 There are        9 alpha and        9 beta electrons

                       Distance Matrix (Angstroms)
             O (  1)   O (  2)   H (  3)
   O (  2)  1.316108
   H (  3)  0.990445  1.835085
   H (  4)  1.835099  0.990443  2.639118
 
 Requested basis set is 6-31G
 There are 10 shells and 22 basis functions
 A cutoff of  1.0D-12 yielded     55 shell pairs
 There are       277 function pairs
 Smallest overlap matrix eigenvalue = 2.82E-02

 Scale SEOQF with 1.000000e+00/1.000000e+00/1.000000e+00

 Standard Electronic Orientation quadrupole field applied
 Nucleus-field energy     =     0.0000000042 hartrees
 Guess from superposition of atomic densities
 Warning:  Energy on first SCF cycle will be non-variational
 SAD guess density has 18.000000 electrons

 -----------------------------------------------------------------------
  General SCF calculation program by
  Eric Jon Sundstrom, Paul Horn, Yuezhi Mao, Dmitri Zuev, Alec White,
  David Stuck, Shaama M.S., Shane Yost, Joonho Lee, David Small,
  Daniel Levine, Susi Lehtola, Hugh Burton, Evgeny Epifanovsky,
  Bang C. Huynh
 -----------------------------------------------------------------------
 Exchange:     0.1900 Hartree-Fock + 0.3500 B88 + 0.4600 muB88 + LR-HF
 Correlation:  0.1900 VWN5 + 0.8100 LYP
 Using SG-1 standard quadrature grid
 A restricted SCF calculation will be
 performed using DIIS
 SCF converges when DIIS error is below 1.0e-08
 ---------------------------------------
  Cycle       Energy         DIIS error
 ---------------------------------------
    1    -151.6926747388      1.94e-01  
    2    -151.3839391748      2.24e-02  
    3    -151.3996074476      1.77e-02  
    4    -151.4131213962      1.64e-03  
    5    -151.4132503172      1.13e-04  
    6    -151.4132511792      1.26e-05  
    7    -151.4132511970      1.29e-06  
    8    -151.4132511973      1.30e-07  
    9    -151.4132511973      4.05e-08  
   10    -151.4132511973      2.06e-08  
   11    -151.4132511973      2.63e-10  Convergence criterion met
 ---------------------------------------
 SCF time:   CPU 0.68s  wall 0.00s 
 SCF   energy =  -151.41325120
 Total energy =  -151.41325120
 
 --------------------------------------------------------------
             Orbital Energies (a.u.) and Symmetries
 --------------------------------------------------------------
 
 Alpha MOs, Restricted
 -- Occupied --                  
-19.260 -19.260  -1.273  -0.955  -0.613  -0.577  -0.497  -0.390
  1 A'    2 A'    3 A'    4 A'    5 A'    6 A'    1 A"    7 A'                 
 -0.289
  2 A"                                                                         
 -- Virtual --                   
  0.113   0.117   0.229   0.845   0.872   0.923   0.928   1.027
  8 A'    9 A'   10 A'   11 A'   12 A'    3 A"   13 A'    4 A"                 
  1.049   1.131   1.151   1.461   1.698
 14 A'   15 A'   16 A'   17 A'   18 A'                                         
 
 Beta MOs, Restricted
 -- Occupied --                  
-19.260 -19.260  -1.273  -0.955  -0.613  -0.577  -0.497  -0.390
  1 A'    2 A'    3 A'    4 A'    5 A'    6 A'    1 A"    7 A'                 
 -0.289
  2 A"                                                                         
 -- Virtual --                   
  0.113   0.117   0.229   0.845   0.872   0.923   0.928   1.027
  8 A'    9 A'   10 A'   11 A'   12 A'    3 A"   13 A'    4 A"                 
  1.049   1.131   1.151   1.461   1.698
 14 A'   15 A'   16 A'   17 A'   18 A'                                         
 --------------------------------------------------------------
 
          Ground-State Mulliken Net Atomic Charges

     Atom                 Charge (a.u.)
  ----------------------------------------
      1 O                    -0.403559
      2 O                    -0.403563
      3 H                     0.403561
      4 H                     0.403561
  ----------------------------------------
  Sum of atomic charges =     0.000000

 -----------------------------------------------------------------
                    Cartesian Multipole Moments
 -----------------------------------------------------------------
    Charge (ESU x 10^10)
                -0.0000
    Dipole Moment (Debye)
         X      -0.0000      Y       0.0000      Z      -0.0000
       Tot       0.0000
    Quadrupole Moments (Debye-Ang)
        XX      -9.3910     XY       4.5158     YY     -10.0375
        XZ       0.0000     YZ      -0.0000     ZZ     -12.4932
    Octopole Moments (Debye-Ang^2)
       XXX      -0.0002    XXY      -0.0000    XYY       0.0000
       YYY       0.0000    XXZ      -0.0000    XYZ      -0.0000
       YYZ      -0.0000    XZZ      -0.0000    YZZ       0.0000
       ZZZ      -0.0000
    Hexadecapole Moments (Debye-Ang^3)
      XXXX     -34.1482   XXXY       5.9422   XXYY      -6.7866
      XYYY       3.6409   YYYY     -11.0239   XXXZ       0.0000
      XXYZ       0.0000   XYYZ       0.0000   YYYZ      -0.0000
      XXZZ      -8.9114   XYZZ       0.7451   YYZZ      -3.5498
      XZZZ       0.0000   YZZZ       0.0000   ZZZZ      -8.7702
 -----------------------------------------------------------------
 Calculating analytic gradient of the SCF energy
 Gradient of SCF Energy
            1           2           3           4
    1  -0.1531861   0.1531881   0.0063592  -0.0063612
    2   0.0240876  -0.0240902   0.0117241  -0.0117215
    3  -0.0000000  -0.0000000   0.0000000   0.0000000
 Max gradient component =       1.532E-01
 RMS gradient           =       6.354E-02
 Gradient time:  CPU 0.13 s  wall 0.13 s

 *****************************************************
             Starting BFGS Algorithm
 *****************************************************
            LIBOPT3 RUN PARAMETERS

  Geometry Optimization Coordinates :
	Delocalized Natural Internal Coordinates

  Step Length Selection Method :
	Eigenvector Following Algorithm

  Step Length Limiter :
	Root-Mean-Square of Gradient

  Convergence Criteria :
	Max Gradient Component    	3.00000000e-04
	Max Displacement Component	1.20000000e-03
	Absolute Energy Difference	1.00000000e-06

  Initial Hessian :
	Approximate Hessian - Simple Internal Coordinate Scaled

  Type of Verification :
	Verify with final updated Hessian
 *****************************************************

	OPTIMIZATION CYCLE:	1

 Scaling Magnitude of Eigenvalues
 	Minimum: -25.00000000	 Maximum: 25.00000000
 6 Hessian Eigenvalues to form next step
   0.10000000   0.20000000   0.20000000   0.50000000   0.50000000
   0.50000000

 Minimum Search taking a RFO step
 Searching for Lambda that minimizes along all modes
	Value of Lambda   -0.04273307
	Norm  of Stepsize  0.28060158
	RMS   of Stepsize  0.11455511

	Performing Iterative Coordinate Back-Transformation

	  Starting from Previous Position

	  iter:	0	rms: 6.7447849504e-02	maxdev: 1.4585196870e-01
	  iter:	1	rms: 1.6311543324e-03	maxdev: 2.8559528560e-03
	  iter:	2	rms: 3.4793208009e-06	maxdev: 7.0886931674e-06
	  iter:	3	rms: 2.0868947067e-12	maxdev: 3.6852757786e-12	 Success!

	Finished Iterative Coordinate Back-Transformation
 ----------------------------------------------------------------
             Standard Nuclear Orientation (Angstroms)
    I     Atom           X                Y                Z
 ----------------------------------------------------------------
    1      O       0.7165605177    -0.1481875754     0.0000000000
    2      O      -0.7165669956     0.1481915890     0.0000000000
    3      H       1.1479083246     0.7289344597    -0.0000000000
    4      H      -1.1479168956    -0.7289286885    -0.0000000000
 ----------------------------------------------------------------
 Molecular Point Group                 Cs    NOp =  2
 Largest Abelian Subgroup              Cs    NOp =  2
 Nuclear Repulsion Energy =          36.33452592 hartrees
 There are        9 alpha and        9 beta electrons

                       Distance Matrix (Angstroms)
             O (  1)   O (  2)   H (  3)
   O (  2)  1.463453
   H (  3)  0.977448  1.952826
   H (  4)  1.952828  0.977447  2.719592
 
 Applying Cartesian multipole field
    Component          Value
    ---------          -----
     (2,0,0)        1.00000E-10
     (0,2,0)        2.00000E-10
     (0,0,2)       -3.00000E-10
 Nucleus-field energy     = 4.8848290199e-09 hartrees
 Requested basis set is 6-31G
 There are 10 shells and 22 basis functions
 A cutoff of  1.0D-12 yielded     55 shell pairs
 There are       277 function pairs
 Smallest overlap matrix eigenvalue = 4.18E-02
 Guess MOs from SCF MO coefficient file

 -----------------------------------------------------------------------
  General SCF calculation program by
  Eric Jon Sundstrom, Paul Horn, Yuezhi Mao, Dmitri Zuev, Alec White,
  David Stuck, Shaama M.S., Shane Yost, Joonho Lee, David Small,
  Daniel Levine, Susi Lehtola, Hugh Burton, Evgeny Epifanovsky,
  Bang C. Huynh
 -----------------------------------------------------------------------
 Exchange:     0.1900 Hartree-Fock + 0.3500 B88 + 0.4600 muB88 + LR-HF
 Correlation:  0.1900 VWN5 + 0.8100 LYP
 Using SG-1 standard quadrature grid
 A restricted SCF calculation will be
 performed using DIIS
 SCF converges when DIIS error is below 1.0e-08
 ---------------------------------------
  Cycle       Energy         DIIS error
 ---------------------------------------
    1    -151.4232638958      1.18e-02  
    2    -151.4338304590      1.98e-03  
    3    -151.4340515623      1.45e-03  
    4    -151.4341480181      1.04e-04  
    5    -151.4341493359      1.13e-05  
    6    -151.4341493688      1.97e-06  
    7    -151.4341493697      3.71e-07  
    8    -151.4341493697      4.43e-07  
    9    -151.4341493697      8.52e-09  Convergence criterion met
 ---------------------------------------
 SCF time:   CPU 0.56s  wall 0.00s 
 SCF   energy =  -151.43414937
 Total energy =  -151.43414937
 
 --------------------------------------------------------------
             Orbital Energies (a.u.) and Symmetries
 --------------------------------------------------------------
 
 Alpha MOs, Restricted
 -- Occupied --                  
-19.271 -19.271  -1.198  -0.987  -0.593  -0.557  -0.465  -0.407
  1 A'    2 A'    3 A'    4 A'    5 A'    6 A'    1 A"    7 A'                 
 -0.318
  2 A"                                                                         
 -- Virtual --                   
  0.061   0.118   0.168   0.844   0.878   0.912   0.920   1.030
  8 A'    9 A'   10 A'   11 A'   12 A'    3 A"   13 A'    4 A"                 
  1.096   1.114   1.161   1.445   1.666
 14 A'   15 A'   16 A'   17 A'   18 A'                                         
 
 Beta MOs, Restricted
 -- Occupied --                  
-19.271 -19.271  -1.198  -0.987  -0.593  -0.557  -0.465  -0.407
  1 A'    2 A'    3 A'    4 A'    5 A'    6 A'    1 A"    7 A'                 
 -0.318
  2 A"                                                                         
 -- Virtual --                   
  0.061   0.118   0.168   0.844   0.878   0.912   0.920   1.030
  8 A'    9 A'   10 A'   11 A'   12 A'    3 A"   13 A'    4 A"                 
  1.096   1.114   1.161   1.445   1.666
 14 A'   15 A'   16 A'   17 A'   18 A'                                         
 --------------------------------------------------------------
 
          Ground-State Mulliken Net Atomic Charges

     Atom                 Charge (a.u.)
  ----------------------------------------
      1 O                    -0.403623
      2 O                    -0.403624
      3 H                     0.403624
      4 H                     0.403624
  ----------------------------------------
  Sum of atomic charges =     0.000000

 -----------------------------------------------------------------
                    Cartesian Multipole Moments
 -----------------------------------------------------------------
    Charge (ESU x 10^10)
                 0.0000
    Dipole Moment (Debye)
         X      -0.0000      Y       0.0000      Z      -0.0000
       Tot       0.0000
    Quadrupole Moments (Debye-Ang)
        XX      -9.0534     XY       4.6005     YY      -9.9998
        XZ       0.0000     YZ      -0.0000     ZZ     -12.6294
    Octopole Moments (Debye-Ang^2)
       XXX       0.0001    XXY      -0.0001    XYY       0.0001
       YYY      -0.0001    XXZ      -0.0000    XYZ      -0.0000
       YYZ      -0.0000    XZZ       0.0000    YZZ      -0.0000
       ZZZ      -0.0000
    Hexadecapole Moments (Debye-Ang^3)
      XXXX     -39.7730   XXXY       6.6711   XXYY      -7.6541
      XYYY       3.8020   YYYY     -10.9086   XXXZ       0.0000
      XXYZ       0.0000   XYYZ       0.0000   YYYZ      -0.0000
      XXZZ     -10.1316   XYZZ       0.7763   YYZZ      -3.5587
      XZZZ       0.0000   YZZZ       0.0000   ZZZZ      -8.9107
 -----------------------------------------------------------------
 Calculating analytic gradient of the SCF energy
 Gradient of SCF Energy
            1           2           3           4
    1  -0.0198753   0.0198752   0.0100028  -0.0100028
    2   0.0233905  -0.0233912  -0.0056840   0.0056846
    3   0.0000000   0.0000000  -0.0000000   0.0000000
 Max gradient component =       2.339E-02
 RMS gradient           =       1.338E-02
 Gradient time:  CPU 0.12 s  wall 0.12 s

     Step 1	:
        Energy is -151.4341493697
                            Maximum         Tolerance       Converged?
         Gradient           2.67603674e-02	3.00000000e-04	false
         Displacement       2.33137923e-01	1.20000000e-03	false
         Energy change      2.08981723e-02	1.00000000e-06	false


	OPTIMIZATION CYCLE:	2

 Scaling Magnitude of Eigenvalues
 	Minimum: -25.00000000	 Maximum: 25.00000000
 6 Hessian Eigenvalues to form next step
   0.10000000   0.18596403   0.20000000   0.49768763   0.50000000
   0.53586522

 Minimum Search taking a RFO step
 Searching for Lambda that minimizes along all modes
	Value of Lambda   -0.00557879
	Norm  of Stepsize  0.17042388
	RMS   of Stepsize  0.06957526

	Performing Iterative Coordinate Back-Transformation

	  Starting from Previous Position

	  iter:	0	rms: 4.8506738908e-02	maxdev: 9.3056866119e-02
	  iter:	1	rms: 2.3010562935e-03	maxdev: 4.6096376370e-03
	  iter:	2	rms: 9.9432081546e-07	maxdev: 1.8291705632e-06	 Success!

	Finished Iterative Coordinate Back-Transformation
 ----------------------------------------------------------------
             Standard Nuclear Orientation (Angstroms)
    I     Atom           X                Y                Z
 ----------------------------------------------------------------
    1      O       0.7243817745    -0.1850799971    -0.0000000000
    2      O      -0.7243900252     0.1850852768    -0.0000000000
    3      H       1.0962210188     0.7181315328     0.0000000000
    4      H      -1.0962278172    -0.7181270276     0.0000000000
 ----------------------------------------------------------------
 Molecular Point Group                 Cs    NOp =  2
 Largest Abelian Subgroup              Cs    NOp =  2
 Nuclear Repulsion Energy =          35.98238018 hartrees
 There are        9 alpha and        9 beta electrons

                       Distance Matrix (Angstroms)
             O (  1)   O (  2)   H (  3)
   O (  2)  1.495313
   H (  3)  0.976758  1.897041
   H (  4)  1.897039  0.976758  2.621006
 
 Applying Cartesian multipole field
    Component          Value
    ---------          -----
     (2,0,0)        1.00000E-10
     (0,2,0)        2.00000E-10
     (0,0,2)       -3.00000E-10
 Nucleus-field energy     = 4.9845609050e-09 hartrees
 Requested basis set is 6-31G
 There are 10 shells and 22 basis functions
 A cutoff of  1.0D-12 yielded     55 shell pairs
 There are       277 function pairs
 Smallest overlap matrix eigenvalue = 4.18E-02
 Guess MOs from SCF MO coefficient file

 -----------------------------------------------------------------------
  General SCF calculation program by
  Eric Jon Sundstrom, Paul Horn, Yuezhi Mao, Dmitri Zuev, Alec White,
  David Stuck, Shaama M.S., Shane Yost, Joonho Lee, David Small,
  Daniel Levine, Susi Lehtola, Hugh Burton, Evgeny Epifanovsky,
  Bang C. Huynh
 -----------------------------------------------------------------------
 Exchange:     0.1900 Hartree-Fock + 0.3500 B88 + 0.4600 muB88 + LR-HF
 Correlation:  0.1900 VWN5 + 0.8100 LYP
 Using SG-1 standard quadrature grid
 A restricted SCF calculation will be
 performed using DIIS
 SCF converges when DIIS error is below 1.0e-08
 ---------------------------------------
  Cycle       Energy         DIIS error
 ---------------------------------------
    1    -151.4351375719      3.79e-03  
    2    -151.4365744788      5.83e-04  
    3    -151.4366221607      1.50e-04  
    4    -151.4366238708      8.71e-05  
    5    -151.4366243483      9.06e-06  
    6    -151.4366243631      4.87e-07  
    7    -151.4366243631      2.23e-07  
    8    -151.4366243631      1.66e-07  
    9    -151.4366243631      4.82e-09  Convergence criterion met
 ---------------------------------------
 SCF time:   CPU 0.63s  wall 1.00s 
 SCF   energy =  -151.43662436
 Total energy =  -151.43662436
 
 --------------------------------------------------------------
             Orbital Energies (a.u.) and Symmetries
 --------------------------------------------------------------
 
 Alpha MOs, Restricted
 -- Occupied --                  
-19.276 -19.276  -1.195  -0.990  -0.571  -0.568  -0.463  -0.424
  1 A'    2 A'    3 A'    4 A'    5 A'    6 A'    1 A"    7 A'                 
 -0.326
  2 A"                                                                         
 -- Virtual --                   
  0.051   0.111   0.163   0.852   0.880   0.905   0.931   1.030
  8 A'    9 A'   10 A'   11 A'   12 A'    3 A"   13 A'    4 A"                 
  1.072   1.117   1.131   1.441   1.706
 14 A'   15 A'   16 A'   17 A'   18 A'                                         
 
 Beta MOs, Restricted
 -- Occupied --                  
-19.276 -19.276  -1.195  -0.990  -0.571  -0.568  -0.463  -0.424
  1 A'    2 A'    3 A'    4 A'    5 A'    6 A'    1 A"    7 A'                 
 -0.326
  2 A"                                                                         
 -- Virtual --                   
  0.051   0.111   0.163   0.852   0.880   0.905   0.931   1.030
  8 A'    9 A'   10 A'   11 A'   12 A'    3 A"   13 A'    4 A"                 
  1.072   1.117   1.131   1.441   1.706
 14 A'   15 A'   16 A'   17 A'   18 A'                                         
 --------------------------------------------------------------
 
          Ground-State Mulliken Net Atomic Charges

     Atom                 Charge (a.u.)
  ----------------------------------------
      1 O                    -0.402939
      2 O                    -0.402939
      3 H                     0.402939
      4 H                     0.402939
  ----------------------------------------
  Sum of atomic charges =     0.000000

 -----------------------------------------------------------------
                    Cartesian Multipole Moments
 -----------------------------------------------------------------
    Charge (ESU x 10^10)
                 0.0000
    Dipole Moment (Debye)
         X       0.0000      Y      -0.0000      Z       0.0000
       Tot       0.0000
    Quadrupole Moments (Debye-Ang)
        XX      -9.4590     XY       4.3957     YY     -10.1115
        XZ       0.0000     YZ       0.0000     ZZ     -12.6532
    Octopole Moments (Debye-Ang^2)
       XXX       0.0001    XXY      -0.0001    XYY       0.0001
       YYY      -0.0001    XXZ       0.0000    XYZ       0.0000
       YYZ       0.0000    XZZ       0.0001    YZZ      -0.0000
       ZZZ       0.0000
    Hexadecapole Moments (Debye-Ang^3)
      XXXX     -41.2200   XXXY       6.7887   XXYY      -8.1349
      XYYY       4.6295   YYYY     -11.6518   XXXZ       0.0000
      XXYZ       0.0000   XYYZ       0.0000   YYYZ       0.0000
      XXZZ     -10.1646   XYZZ       1.1336   YYZZ      -3.6968
      XZZZ       0.0000   YZZZ       0.0000   ZZZZ      -8.9328
 -----------------------------------------------------------------
 Calculating analytic gradient of the SCF energy
 Gradient of SCF Energy
            1           2           3           4
    1  -0.0054240   0.0054239  -0.0036835   0.0036836
    2   0.0005683  -0.0005682  -0.0018776   0.0018774
    3   0.0000000   0.0000000  -0.0000000  -0.0000000
 Max gradient component =       5.424E-03
 RMS gradient           =       2.794E-03
 Gradient time:  CPU 0.12 s  wall 0.12 s

     Step 2	:
        Energy is -151.4366243631
                            Maximum         Tolerance       Converged?
         Gradient           1.13148401e-02	3.00000000e-04	false
         Displacement       1.33419370e-01	1.20000000e-03	false
         Energy change      2.47499344e-03	1.00000000e-06	false


	OPTIMIZATION CYCLE:	3

 Scaling Magnitude of Eigenvalues
 	Minimum: -25.00000000	 Maximum: 25.00000000
 6 Hessian Eigenvalues to form next step
   0.10000000   0.20000000   0.20445726   0.50000000   0.50407559
   0.55046052

 Minimum Search taking a RFO step
 Searching for Lambda that minimizes along all modes
	Value of Lambda   -0.00027201
	Norm  of Stepsize  0.02346567
	RMS   of Stepsize  0.00957982

	Performing Iterative Coordinate Back-Transformation

	  Starting from Previous Position

	  iter:	0	rms: 1.0347082328e-02	maxdev: 2.1432554820e-02
	  iter:	1	rms: 1.8769102023e-05	maxdev: 3.8014390057e-05
	  iter:	2	rms: 7.7707357652e-10	maxdev: 1.6400938680e-09	 Success!

	Finished Iterative Coordinate Back-Transformation
 ----------------------------------------------------------------
             Standard Nuclear Orientation (Angstroms)
    I     Atom           X                Y                Z
 ----------------------------------------------------------------
    1      O       0.7288258692    -0.1814681454    -0.0000000000
    2      O      -0.7288334112     0.1814730808    -0.0000000000
    3      H       1.1075687407     0.7224286603     0.0000000000
    4      H      -1.1075762476    -0.7224238108     0.0000000000
 ----------------------------------------------------------------
 Molecular Point Group                 Cs    NOp =  2
 Largest Abelian Subgroup              Cs    NOp =  2
 Nuclear Repulsion Energy =          35.80773985 hartrees
 There are        9 alpha and        9 beta electrons

                       Distance Matrix (Angstroms)
             O (  1)   O (  2)   H (  3)
   O (  2)  1.502164
   H (  3)  0.980039  1.914420
   H (  4)  1.914420  0.980039  2.644705
 
 Applying Cartesian multipole field
    Component          Value
    ---------          -----
     (2,0,0)        1.00000E-10
     (0,2,0)        2.00000E-10
     (0,0,2)       -3.00000E-10
 Nucleus-field energy     = 5.0330320932e-09 hartrees
 Requested basis set is 6-31G
 There are 10 shells and 22 basis functions
 A cutoff of  1.0D-12 yielded     55 shell pairs
 There are       277 function pairs
 Smallest overlap matrix eigenvalue = 4.28E-02
 Guess MOs from SCF MO coefficient file

 -----------------------------------------------------------------------
  General SCF calculation program by
  Eric Jon Sundstrom, Paul Horn, Yuezhi Mao, Dmitri Zuev, Alec White,
  David Stuck, Shaama M.S., Shane Yost, Joonho Lee, David Small,
  Daniel Levine, Susi Lehtola, Hugh Burton, Evgeny Epifanovsky,
  Bang C. Huynh
 -----------------------------------------------------------------------
 Exchange:     0.1900 Hartree-Fock + 0.3500 B88 + 0.4600 muB88 + LR-HF
 Correlation:  0.1900 VWN5 + 0.8100 LYP
 Using SG-1 standard quadrature grid
 A restricted SCF calculation will be
 performed using DIIS
 SCF converges when DIIS error is below 1.0e-08
 ---------------------------------------
  Cycle       Energy         DIIS error
 ---------------------------------------
    1    -151.4367702308      4.76e-04  
    2    -151.4367851597      1.80e-04  
    3    -151.4367863538      1.01e-04  
    4    -151.4367868665      6.75e-06  
    5    -151.4367868727      5.51e-07  
    6    -151.4367868728      6.27e-08  
    7    -151.4367868728      3.79e-08  
    8    -151.4367868728      1.47e-08  
    9    -151.4367868728      6.21e-10  Convergence criterion met
 ---------------------------------------
 SCF time:   CPU 0.55s  wall 1.00s 
 SCF   energy =  -151.43678687
 Total energy =  -151.43678687
 
 --------------------------------------------------------------
             Orbital Energies (a.u.) and Symmetries
 --------------------------------------------------------------
 
 Alpha MOs, Restricted
 -- Occupied --                  
-19.277 -19.277  -1.191  -0.990  -0.571  -0.565  -0.461  -0.423
  1 A'    2 A'    3 A'    4 A'    5 A'    6 A'    1 A"    7 A'                 
 -0.326
  2 A"                                                                         
 -- Virtual --                   
  0.047   0.111   0.161   0.849   0.877   0.905   0.929   1.030
  8 A'    9 A'   10 A'   11 A'   12 A'    3 A"   13 A'    4 A"                 
  1.079   1.115   1.132   1.438   1.701
 14 A'   15 A'   16 A'   17 A'   18 A'                                         
 
 Beta MOs, Restricted
 -- Occupied --                  
-19.277 -19.277  -1.191  -0.990  -0.571  -0.565  -0.461  -0.423
  1 A'    2 A'    3 A'    4 A'    5 A'    6 A'    1 A"    7 A'                 
 -0.326
  2 A"                                                                         
 -- Virtual --                   
  0.047   0.111   0.161   0.849   0.877   0.905   0.929   1.030
  8 A'    9 A'   10 A'   11 A'   12 A'    3 A"   13 A'    4 A"                 
  1.079   1.115   1.132   1.438   1.701
 14 A'   15 A'   16 A'   17 A'   18 A'                                         
 --------------------------------------------------------------
 
          Ground-State Mulliken Net Atomic Charges

     Atom                 Charge (a.u.)
  ----------------------------------------
      1 O                    -0.402850
      2 O                    -0.402850
      3 H                     0.402850
      4 H                     0.402850
  ----------------------------------------
  Sum of atomic charges =     0.000000

 -----------------------------------------------------------------
                    Cartesian Multipole Moments
 -----------------------------------------------------------------
    Charge (ESU x 10^10)
                 0.0000
    Dipole Moment (Debye)
         X       0.0000      Y      -0.0000      Z       0.0000
       Tot       0.0000
    Quadrupole Moments (Debye-Ang)
        XX      -9.3816     XY       4.4329     YY     -10.0919
        XZ      -0.0000     YZ       0.0000     ZZ     -12.6657
    Octopole Moments (Debye-Ang^2)
       XXX       0.0001    XXY      -0.0001    XYY       0.0001
       YYY      -0.0001    XXZ       0.0000    XYZ       0.0000
       YYZ       0.0000    XZZ       0.0000    YZZ      -0.0000
       ZZZ       0.0000
    Hexadecapole Moments (Debye-Ang^3)
      XXXX     -41.5278   XXXY       6.8455   XXYY      -8.1432
      XYYY       4.5671   YYYY     -11.5965   XXXZ      -0.0000
      XXYZ       0.0000   XYYZ      -0.0000   YYYZ       0.0000
      XXZZ     -10.2680   XYZZ       1.0956   YYZZ      -3.6922
      XZZZ      -0.0000   YZZZ       0.0000   ZZZZ      -8.9466
 -----------------------------------------------------------------
 Calculating analytic gradient of the SCF energy
 Gradient of SCF Energy
            1           2           3           4
    1  -0.0025320   0.0025320  -0.0003612   0.0003612
    2   0.0002281  -0.0002281   0.0000297  -0.0000297
    3  -0.0000000  -0.0000000   0.0000000  -0.0000000
 Max gradient component =       2.532E-03
 RMS gradient           =       1.048E-03
 Gradient time:  CPU 0.12 s  wall 0.12 s

     Step 3	:
        Energy is -151.4367868728
                            Maximum         Tolerance       Converged?
         Gradient           2.08075985e-03	3.00000000e-04	false
         Displacement       2.32356227e-02	1.20000000e-03	false
         Energy change      1.62509663e-04	1.00000000e-06	false


	OPTIMIZATION CYCLE:	4

 Scaling Magnitude of Eigenvalues
 	Minimum: -25.00000000	 Maximum: 25.00000000
 6 Hessian Eigenvalues to form next step
   0.10000000   0.20000000   0.21595110   0.40021724   0.50000000
   0.52560169

 Minimum Search taking a RFO step
 Searching for Lambda that minimizes along all modes
	Value of Lambda   -0.00002431
	Norm  of Stepsize  0.00829420
	RMS   of Stepsize  0.00338609

	Performing Iterative Coordinate Back-Transformation

	  Starting from Previous Position

	  iter:	0	rms: 2.3895610070e-03	maxdev: 4.3319013033e-03
	  iter:	1	rms: 1.1883984988e-06	maxdev: 2.2708815393e-06
	  iter:	2	rms: 1.4381760873e-12	maxdev: 2.9197644677e-12	 Success!

	Finished Iterative Coordinate Back-Transformation
 ----------------------------------------------------------------
             Standard Nuclear Orientation (Angstroms)
    I     Atom           X                Y                Z
 ----------------------------------------------------------------
    1      O       0.7311180491    -0.1812558721     0.0000000000
    2      O      -0.7311255272     0.1812607471     0.0000000000
    3      H       1.1095031561     0.7231751923    -0.0000000000
    4      H      -1.1095107270    -0.7231702826    -0.0000000000
 ----------------------------------------------------------------
 Molecular Point Group                 Cs    NOp =  2
 Largest Abelian Subgroup              Cs    NOp =  2
 Nuclear Repulsion Energy =          35.72928905 hartrees
 There are        9 alpha and        9 beta electrons

                       Distance Matrix (Angstroms)
             O (  1)   O (  2)   H (  3)
   O (  2)  1.506511
   H (  3)  0.980393  1.918746
   H (  4)  1.918746  0.980393  2.648762
 
 Applying Cartesian multipole field
    Component          Value
    ---------          -----
     (2,0,0)        1.00000E-10
     (0,2,0)        2.00000E-10
     (0,0,2)       -3.00000E-10
 Nucleus-field energy     = 5.0558771718e-09 hartrees
 Requested basis set is 6-31G
 There are 10 shells and 22 basis functions
 A cutoff of  1.0D-12 yielded     55 shell pairs
 There are       277 function pairs
 Smallest overlap matrix eigenvalue = 4.32E-02
 Guess MOs from SCF MO coefficient file

 -----------------------------------------------------------------------
  General SCF calculation program by
  Eric Jon Sundstrom, Paul Horn, Yuezhi Mao, Dmitri Zuev, Alec White,
  David Stuck, Shaama M.S., Shane Yost, Joonho Lee, David Small,
  Daniel Levine, Susi Lehtola, Hugh Burton, Evgeny Epifanovsky,
  Bang C. Huynh
 -----------------------------------------------------------------------
 Exchange:     0.1900 Hartree-Fock + 0.3500 B88 + 0.4600 muB88 + LR-HF
 Correlation:  0.1900 VWN5 + 0.8100 LYP
 Using SG-1 standard quadrature grid
 A restricted SCF calculation will be
 performed using DIIS
 SCF converges when DIIS error is below 1.0e-08
 ---------------------------------------
  Cycle       Energy         DIIS error
 ---------------------------------------
    1    -151.4367953753      2.46e-04  
    2    -151.4368001445      5.38e-05  
    3    -151.4368002831      4.13e-05  
    4    -151.4368003632      2.83e-06  
    5    -151.4368003644      3.26e-07  
    6    -151.4368003644      4.75e-08  
    7    -151.4368003644      1.74e-08  
    8    -151.4368003644      1.23e-08  
    9    -151.4368003644      3.10e-10  Convergence criterion met
 ---------------------------------------
 SCF time:   CPU 0.55s  wall 0.00s 
 SCF   energy =  -151.43680036
 Total energy =  -151.43680036
 
 --------------------------------------------------------------
             Orbital Energies (a.u.) and Symmetries
 --------------------------------------------------------------
 
 Alpha MOs, Restricted
 -- Occupied --                  
-19.277 -19.277  -1.189  -0.991  -0.571  -0.565  -0.460  -0.423
  1 A'    2 A'    3 A'    4 A'    5 A'    6 A'    1 A"    7 A'                 
 -0.327
  2 A"                                                                         
 -- Virtual --                   
  0.045   0.111   0.161   0.848   0.877   0.905   0.929   1.030
  8 A'    9 A'   10 A'   11 A'   12 A'    3 A"   13 A'    4 A"                 
  1.080   1.115   1.132   1.436   1.701
 14 A'   15 A'   16 A'   17 A'   18 A'                                         
 
 Beta MOs, Restricted
 -- Occupied --                  
-19.277 -19.277  -1.189  -0.991  -0.571  -0.565  -0.460  -0.423
  1 A'    2 A'    3 A'    4 A'    5 A'    6 A'    1 A"    7 A'                 
 -0.327
  2 A"                                                                         
 -- Virtual --                   
  0.045   0.111   0.161   0.848   0.877   0.905   0.929   1.030
  8 A'    9 A'   10 A'   11 A'   12 A'    3 A"   13 A'    4 A"                 
  1.080   1.115   1.132   1.436   1.701
 14 A'   15 A'   16 A'   17 A'   18 A'                                         
 --------------------------------------------------------------
 
          Ground-State Mulliken Net Atomic Charges

     Atom                 Charge (a.u.)
  ----------------------------------------
      1 O                    -0.402805
      2 O                    -0.402805
      3 H                     0.402805
      4 H                     0.402805
  ----------------------------------------
  Sum of atomic charges =     0.000000

 -----------------------------------------------------------------
                    Cartesian Multipole Moments
 -----------------------------------------------------------------
    Charge (ESU x 10^10)
                 0.0000
    Dipole Moment (Debye)
         X      -0.0000      Y       0.0000      Z      -0.0000
       Tot       0.0000
    Quadrupole Moments (Debye-Ang)
        XX      -9.3680     XY       4.4378     YY     -10.0892
        XZ      -0.0000     YZ      -0.0000     ZZ     -12.6698
    Octopole Moments (Debye-Ang^2)
       XXX       0.0001    XXY      -0.0001    XYY       0.0001
       YYY      -0.0001    XXZ      -0.0000    XYZ      -0.0000
       YYZ      -0.0000    XZZ       0.0000    YZZ      -0.0000
       ZZZ      -0.0000
    Hexadecapole Moments (Debye-Ang^3)
      XXXX     -41.7128   XXXY       6.8712   XXYY      -8.1692
      XYYY       4.5721   YYYY     -11.5959   XXXZ      -0.0000
      XXYZ      -0.0000   XYYZ       0.0000   YYYZ      -0.0000
      XXZZ     -10.3105   XYZZ       1.0953   YYZZ      -3.6934
      XZZZ       0.0000   YZZZ      -0.0000   ZZZZ      -8.9509
 -----------------------------------------------------------------
 Calculating analytic gradient of the SCF energy
 Gradient of SCF Energy
            1           2           3           4
    1  -0.0004216   0.0004216   0.0000776  -0.0000776
    2   0.0000040  -0.0000040   0.0001185  -0.0001185
    3   0.0000000   0.0000000  -0.0000000  -0.0000000
 Max gradient component =       4.216E-04
 RMS gradient           =       1.816E-04
 Gradient time:  CPU 0.12 s  wall 0.12 s

     Step 4	:
        Energy is -151.4368003644
                            Maximum         Tolerance       Converged?
         Gradient           4.05498278e-04	3.00000000e-04	false
         Displacement       5.55658751e-03	1.20000000e-03	false
         Energy change      1.34916370e-05	1.00000000e-06	false


	OPTIMIZATION CYCLE:	5

 Scaling Magnitude of Eigenvalues
 	Minimum: -25.00000000	 Maximum: 25.00000000
 6 Hessian Eigenvalues to form next step
   0.10000000   0.19876869   0.20000000   0.38680154   0.50000000
   0.52412204

 Minimum Search taking a RFO step
 Searching for Lambda that minimizes along all modes
	Value of Lambda   -0.00000061
	Norm  of Stepsize  0.00156913
	RMS   of Stepsize  0.00064059

	Performing Iterative Coordinate Back-Transformation

	  Starting from Previous Position

	  iter:	0	rms: 2.9449776934e-04	maxdev: 6.6679265818e-04
	  iter:	1	rms: 5.5209123007e-08	maxdev: 9.2617131135e-08	 Success!

	Finished Iterative Coordinate Back-Transformation
 ----------------------------------------------------------------
             Standard Nuclear Orientation (Angstroms)
    I     Atom           X                Y                Z
 ----------------------------------------------------------------
    1      O       0.7314708730    -0.1813643878     0.0000000000
    2      O      -0.7314783869     0.1813692753     0.0000000000
    3      H       1.1094159554     0.7231322059    -0.0000000000
    4      H      -1.1094234906    -0.7231273086    -0.0000000000
 ----------------------------------------------------------------
 Molecular Point Group                 Cs    NOp =  2
 Largest Abelian Subgroup              Cs    NOp =  2
 Nuclear Repulsion Energy =          35.71878380 hartrees
 There are        9 alpha and        9 beta electrons

                       Distance Matrix (Angstroms)
             O (  1)   O (  2)   H (  3)
   O (  2)  1.507248
   H (  3)  0.980284  1.918958
   H (  4)  1.918958  0.980284  2.648568
 
 Applying Cartesian multipole field
    Component          Value
    ---------          -----
     (2,0,0)        1.00000E-10
     (0,2,0)        2.00000E-10
     (0,0,2)       -3.00000E-10
 Nucleus-field energy     = 5.0590484984e-09 hartrees
 Requested basis set is 6-31G
 There are 10 shells and 22 basis functions
 A cutoff of  1.0D-12 yielded     55 shell pairs
 There are       277 function pairs
 Smallest overlap matrix eigenvalue = 4.33E-02
 Guess MOs from SCF MO coefficient file

 -----------------------------------------------------------------------
  General SCF calculation program by
  Eric Jon Sundstrom, Paul Horn, Yuezhi Mao, Dmitri Zuev, Alec White,
  David Stuck, Shaama M.S., Shane Yost, Joonho Lee, David Small,
  Daniel Levine, Susi Lehtola, Hugh Burton, Evgeny Epifanovsky,
  Bang C. Huynh
 -----------------------------------------------------------------------
 Exchange:     0.1900 Hartree-Fock + 0.3500 B88 + 0.4600 muB88 + LR-HF
 Correlation:  0.1900 VWN5 + 0.8100 LYP
 Using SG-1 standard quadrature grid
 A restricted SCF calculation will be
 performed using DIIS
 SCF converges when DIIS error is below 1.0e-08
 ---------------------------------------
  Cycle       Energy         DIIS error
 ---------------------------------------
    1    -151.4368004763      4.94e-05  
    2    -151.4368006826      6.70e-06  
    3    -151.4368006878      1.70e-06  
    4    -151.4368006879      7.90e-07  
    5    -151.4368006879      6.69e-08  
    6    -151.4368006879      9.29e-09  Convergence criterion met
 ---------------------------------------
 SCF time:   CPU 0.40s  wall 1.00s 
 SCF   energy =  -151.43680069
 Total energy =  -151.43680069
 
 --------------------------------------------------------------
             Orbital Energies (a.u.) and Symmetries
 --------------------------------------------------------------
 
 Alpha MOs, Restricted
 -- Occupied --                  
-19.277 -19.277  -1.189  -0.991  -0.571  -0.565  -0.460  -0.423
  1 A'    2 A'    3 A'    4 A'    5 A'    6 A'    1 A"    7 A'                 
 -0.327
  2 A"                                                                         
 -- Virtual --                   
  0.044   0.111   0.161   0.848   0.877   0.905   0.929   1.030
  8 A'    9 A'   10 A'   11 A'   12 A'    3 A"   13 A'    4 A"                 
  1.080   1.115   1.132   1.436   1.701
 14 A'   15 A'   16 A'   17 A'   18 A'                                         
 
 Beta MOs, Restricted
 -- Occupied --                  
-19.277 -19.277  -1.189  -0.991  -0.571  -0.565  -0.460  -0.423
  1 A'    2 A'    3 A'    4 A'    5 A'    6 A'    1 A"    7 A'                 
 -0.327
  2 A"                                                                         
 -- Virtual --                   
  0.044   0.111   0.161   0.848   0.877   0.905   0.929   1.030
  8 A'    9 A'   10 A'   11 A'   12 A'    3 A"   13 A'    4 A"                 
  1.080   1.115   1.132   1.436   1.701
 14 A'   15 A'   16 A'   17 A'   18 A'                                         
 --------------------------------------------------------------
 
          Ground-State Mulliken Net Atomic Charges

     Atom                 Charge (a.u.)
  ----------------------------------------
      1 O                    -0.402797
      2 O                    -0.402797
      3 H                     0.402797
      4 H                     0.402797
  ----------------------------------------
  Sum of atomic charges =     0.000000

 -----------------------------------------------------------------
                    Cartesian Multipole Moments
 -----------------------------------------------------------------
    Charge (ESU x 10^10)
                 0.0000
    Dipole Moment (Debye)
         X      -0.0000      Y       0.0000      Z       0.0000
       Tot       0.0000
    Quadrupole Moments (Debye-Ang)
        XX      -9.3684     XY       4.4371     YY     -10.0895
        XZ      -0.0000     YZ      -0.0000     ZZ     -12.6701
    Octopole Moments (Debye-Ang^2)
       XXX       0.0001    XXY      -0.0001    XYY       0.0001
       YYY      -0.0001    XXZ      -0.0000    XYZ       0.0000
       YYZ       0.0000    XZZ       0.0000    YZZ      -0.0000
       ZZZ      -0.0000
    Hexadecapole Moments (Debye-Ang^3)
      XXXX     -41.7433   XXXY       6.8745   XXYY      -8.1752
      XYYY       4.5762   YYYY     -11.5978   XXXZ      -0.0000
      XXYZ      -0.0000   XYYZ      -0.0000   YYYZ      -0.0000
      XXZZ     -10.3159   XYZZ       1.0971   YYZZ      -3.6938
      XZZZ      -0.0000   YZZZ      -0.0000   ZZZZ      -8.9513
 -----------------------------------------------------------------
 Calculating analytic gradient of the SCF energy
 Gradient of SCF Energy
            1           2           3           4
    1  -0.0000237   0.0000237   0.0000164  -0.0000164
    2  -0.0000032   0.0000032   0.0000184  -0.0000184
    3  -0.0000000   0.0000000  -0.0000000   0.0000000
 Max gradient component =       2.367E-05
 RMS gradient           =       1.400E-05
 Gradient time:  CPU 0.12 s  wall 0.12 s

     Step 5	:
        Energy is -151.4368006879
                            Maximum         Tolerance       Converged?
         Gradient           2.95508322e-05	3.00000000e-04	true
         Displacement       1.27520988e-03	1.20000000e-03	false
         Energy change      3.23538103e-07	1.00000000e-06	true

	 Optimization Converged in 5 cycles

 *****************************************************
             End of BFGS Algorithm
 *****************************************************
		----------------------------------
		   Verification of Optimization
		----------------------------------

 Eigenvalues of Hessian in Optimization Verification
   0.10000000   0.18720003   0.20000000   0.39817189   0.50000000
   0.50629334

 Found a minimum
		---------------------------------
		       End of Verification
		---------------------------------

 Final energy is -151.436800687945

	******************************
	**  OPTIMIZATION CONVERGED  **
	******************************
 ----------------------------------------------------------------
             Standard Nuclear Orientation (Angstroms)
    I     Atom           X                Y                Z
 ----------------------------------------------------------------
    1      O       0.7314708730    -0.1813643878     0.0000000000
    2      O      -0.7314783869     0.1813692753     0.0000000000
    3      H       1.1094159554     0.7231322059    -0.0000000000
    4      H      -1.1094234906    -0.7231273086    -0.0000000000
 ----------------------------------------------------------------
 Molecular Point Group                 Cs    NOp =  2
 Largest Abelian Subgroup              Cs    NOp =  2
 Nuclear Repulsion Energy =          35.71878380 hartrees
 There are        9 alpha and        9 beta electrons

Z-matrix Print:
$molecule
0 1
O 
H  1 0.980284
O  1 1.507248 2 98.752203
H  3 0.980284 1 98.752202 2 180.000000 0
$end

 -----------------------------------------------------------------------
                  END OF GEOMETRY OPTIMIZER USING LIBOPT3               
 -----------------------------------------------------------------------
 Total job time:  4.31s(wall), 4.31s(cpu) 
 Wed Apr 24 15:06:02 2024

        *************************************************************
        *                                                           *
        *  Thank you very much for using Q-Chem.  Have a nice day.  *
        *                                                           *
        *************************************************************


