Jobname.Temp
FOPT      R                             6-31G               
Number of atoms                            I                4
Charge                                     I                0
Multiplicity                               I                1
Number of electrons                        I               18
Number of alpha electrons                  I                9
Number of beta electrons                   I                9
Atomic numbers                             I   N=           4
           8           8           1           1
Current cartesian coordinates              R   N=          12
  1.20840008E+00 -2.93548694E-01  4.13875895E-16 -1.20839602E+00  2.93546053E-01
 -4.13872133E-16  2.09261744E+00  1.35608956E+00 -1.95442528E-15 -2.09264994E+00
 -1.35606843E+00  1.95439519E-15
Nuclear charges                            R   N=           4
  8.00000000E+00  8.00000000E+00  1.00000000E+00  1.00000000E+00
Number of basis functions                  I               22
Number of contracted shells                I               10
Number of primitive shells                 I               28
Highest angular momentum                   I                1
Largest degree of contraction              I                6
Shell types                                I   N=          10
           0          -1          -1           0          -1          -1
           0           0           0           0
Number of primitives per shell             I   N=          10
           6           3           1           6           3           1
           3           1           3           1
Shell to atom map                          I   N=          10
           1           1           1           2           2           2
           3           3           4           4
Primitive exponents                        R   N=          28
  5.48467170E+03  8.25234950E+02  1.88046960E+02  5.29645000E+01  1.68975700E+01
  5.79963530E+00  1.55396160E+01  3.59993360E+00  1.01376180E+00  2.70005800E-01
  5.48467170E+03  8.25234950E+02  1.88046960E+02  5.29645000E+01  1.68975700E+01
  5.79963530E+00  1.55396160E+01  3.59993360E+00  1.01376180E+00  2.70005800E-01
  1.87311370E+01  2.82539370E+00  6.40121700E-01  1.61277800E-01  1.87311370E+01
  2.82539370E+00  6.40121700E-01  1.61277800E-01
Contraction coefficients                   R   N=          28
  1.83109981E-03  1.39500985E-02  6.84450927E-02  2.32714275E-01  4.70192950E-01
  3.58520862E-01 -1.10777504E-01 -1.48026305E-01  1.13076704E+00  1.00000000E+00
  1.83109981E-03  1.39500985E-02  6.84450927E-02  2.32714275E-01  4.70192950E-01
  3.58520862E-01 -1.10777504E-01 -1.48026305E-01  1.13076704E+00  1.00000000E+00
  3.34945995E-02  2.34726947E-01  8.13757318E-01  1.00000000E+00  3.34945995E-02
  2.34726947E-01  8.13757318E-01  1.00000000E+00
P(S=P) Contraction coefficients            R   N=          28
  0.00000000E+00  0.00000000E+00  0.00000000E+00  0.00000000E+00  0.00000000E+00
  0.00000000E+00  7.08742995E-02  3.39752798E-01  7.27158595E-01  1.00000000E+00
  0.00000000E+00  0.00000000E+00  0.00000000E+00  0.00000000E+00  0.00000000E+00
  0.00000000E+00  7.08742995E-02  3.39752798E-01  7.27158595E-01  1.00000000E+00
  0.00000000E+00  0.00000000E+00  0.00000000E+00  0.00000000E+00  0.00000000E+00
  0.00000000E+00  0.00000000E+00  0.00000000E+00
Coordinates of each shell                  R   N=          30
  1.20840008E+00 -2.93548694E-01  4.13875895E-16  1.20840008E+00 -2.93548694E-01
  4.13875895E-16  1.20840008E+00 -2.93548694E-01  4.13875895E-16 -1.20839602E+00
  2.93546053E-01 -4.13872133E-16 -1.20839602E+00  2.93546053E-01 -4.13872133E-16
 -1.20839602E+00  2.93546053E-01 -4.13872133E-16  2.09261744E+00  1.35608956E+00
 -1.95442528E-15  2.09261744E+00  1.35608956E+00 -1.95442528E-15 -2.09264994E+00
 -1.35606843E+00  1.95439519E-15 -2.09264994E+00 -1.35606843E+00  1.95439519E-15
Current cartesian coordinates              R   N=          12
  1.20840008E+00 -2.93548694E-01  4.13875895E-16 -1.20839602E+00  2.93546053E-01
 -4.13872133E-16  2.09261744E+00  1.35608956E+00 -1.95442528E-15 -2.09264994E+00
 -1.35606843E+00  1.95439519E-15
Orthonormalization Matrix                  R   N=         253
 -2.49665171E-03 -4.95296964E-02 -1.76948556E-17 -3.66177954E-04  3.64219001E-03
  3.67944596E-04 -1.47909927E-16  2.89756451E-02 -1.81766501E-03  1.10787712E-03
 -6.50297798E-01 -2.02295199E-02  7.87937353E-17 -2.30070815E-02  1.12990846E+00
  5.13210974E-17  2.34777139E-02 -2.93410324E-01 -9.65838400E-02 -1.03874579E-16
  6.13614485E-16  9.26015056E-03  1.92387047E-16 -4.46560209E-16  5.40235064E-16
 -6.06898283E-16  1.24484780E-01  1.12211560E-01  2.34779238E-02 -9.10878613E-04
 -1.92030817E-16  1.65484841E-16 -7.40020576E-04 -7.29478166E-02  1.41376071E-16
 -2.05878276E-01  1.37438430E-16  1.27736741E-02  1.34292810E-02 -3.09193525E-02
 -7.29478166E-02 -1.27738113E-02 -3.45568770E-01  5.55759731E-02  7.52843639E-04
 -1.27738113E-02  6.63190045E-17  3.38926830E-17  6.36727451E-17  8.38664823E-18
 -2.55225156E-02  4.77410729E-03 -3.31117709E-02 -7.88610033E-17  4.86172011E-03
  1.56664629E-03 -1.07371325E-01  1.55350414E+00  1.32732954E-02 -2.30070815E-02
 -2.02644521E-01 -3.84421244E-01 -1.34703230E-16 -3.14949822E-01 -2.67355146E-17
  1.10797868E-03 -7.24500912E-17 -3.82577215E-16 -1.02886199E+00 -1.12208411E-01
  1.45755266E-01  1.21543382E+00  7.87937353E-17 -1.53904956E-16 -3.49290883E-16
 -1.02886351E+00  1.13493547E+00  2.83340154E-16  2.79887882E-02  8.13475856E-16
 -1.31930440E-02  4.65417510E-02  5.40725589E-02 -7.48808869E-03 -8.68562793E-03
 -1.07371325E-01 -4.95296379E-02 -5.15996876E-02  3.01424004E-02 -5.24025058E-02
 -9.25977980E-03  6.77173022E-17  1.39875616E-01  7.48813265E-03  3.09197732E-02
  1.39529647E-02 -2.49668056E-03  3.75547651E-04  1.06563045E-16 -4.46560209E-16
  3.21246690E+00 -2.46754473E-03  2.34777139E-02 -7.40020576E-04  3.64219001E-03
 -5.15996876E-02 -8.61578996E-17  3.81846147E-18  7.55906507E-02 -1.21217131E-16
  2.05141690E-02 -2.46754473E-03 -1.03056402E+00 -3.19898413E-01  1.12990856E+00
 -2.61840119E-02 -2.05882202E-01 -3.78421328E-01 -2.10191400E-16  6.02777561E-01
  1.10797868E-03  5.00161942E-16 -2.25383940E-17 -2.01006793E-16 -8.25568409E-16
 -2.14454086E-01 -3.47487667E-01 -6.50297798E-01  1.92387047E-16  1.81768099E-03
  6.13614485E-16  1.65484841E-16  2.79887882E-02 -2.79926842E-01 -6.35585905E-01
  1.09594568E-02  1.10626288E-16  3.75491881E-04  2.05141690E-02  1.02281830E+00
  5.22352933E-17  2.73265874E-02  1.03056253E+00 -3.33307283E-16 -8.54665835E-02
 -2.02292812E-02 -1.49071917E-17  1.81768099E-03  7.52843639E-04  6.16325201E-04
 -8.68562793E-03 -2.02295199E-02  7.16435769E-01  2.39819479E-16 -1.69285876E-16
  4.86176059E-03  9.26015056E-03 -9.14867536E-03 -1.45757303E-01 -2.29736719E-17
  1.58909161E+00 -9.14867536E-03 -2.57536381E-02 -1.09591866E-02  2.81816681E-03
  1.13001992E-02  1.92174445E-01  2.22885247E-01 -7.16747433E-03  6.02777561E-01
  5.00161942E-16  1.34293819E-02 -1.47909927E-16 -2.29736719E-17 -1.92030817E-16
 -1.76948556E-17  7.29479609E-02 -1.32737479E-02 -7.48808869E-03  3.06339083E-16
  2.57038609E-16 -3.45568770E-01 -2.06825157E-16  8.63046616E-02  5.13210974E-17
  1.39875155E-01 -3.66177954E-04 -4.99973752E-17 -3.01416832E-02 -7.52916986E-04
  3.75547651E-04  5.40746695E-02 -7.88610033E-17  1.10787712E-03 -1.66252913E-02
 -1.07371280E-01  2.39819479E-16 -2.10191400E-16 -9.25977980E-03  7.48813265E-03
  4.65403370E-02 -7.16747433E-03  2.73267094E-02  2.30073465E-02  1.55350460E+00
 -1.02886351E+00  3.75491881E-04 -1.97453854E-17  1.37438430E-16 -1.07371280E-01
  2.05142569E-02 -1.21217131E-16  2.46688711E-03  5.46269922E-03  1.11943290E+00
 -1.31944595E-02 -3.47487667E-01 -1.66191588E-02  7.40034584E-04 -2.06405256E-17
  8.69108086E-17 -3.14949822E-01  1.06563045E-16 -1.55312826E-17  9.14626062E-03
  1.13493503E+00 -3.09193525E-02 -2.89749591E-02 -1.34703230E-16  1.09594568E-02
  8.68561834E-03 -1.81766501E-03 -6.16349911E-04 -1.03874579E-16 -2.61827516E-02
  3.64192640E-03 -1.32737479E-02  1.12211560E-01  1.13001992E-02  1.92177269E-01
 -9.10878613E-04 -3.64815464E-16  3.64192640E-03  1.39529647E-02  5.24002134E-02
  2.81810174E-03  2.30073465E-02 -1.45757303E-01  3.09197732E-02 -4.95296964E-02
 -6.16349911E-04  7.40034584E-04  1.02281831E+00
Overlap Matrix                             R   N=         253
  1.00000000E+00  2.33689906E-01  1.00000000E+00 -3.45674589E-17 -2.76938777E-20
  1.00000000E+00 -1.84859688E-17 -1.73079592E-17 -5.57266333E-33  1.00000000E+00
  1.35301252E-32  3.84306201E-32 -1.08987923E-47  2.72469806E-48  1.00000000E+00
  1.67279760E-01  7.63640773E-01 -1.63663542E-17  0.00000000E+00  5.67597635E-32
  1.00000000E+00 -3.28805795E-19  3.37195016E-18  5.01520641E-01  0.00000000E+00
 -8.38588572E-49  0.00000000E+00  1.00000000E+00 -3.36724782E-18  0.00000000E+00
  0.00000000E+00  5.01520641E-01  0.00000000E+00  0.00000000E+00  0.00000000E+00
  1.00000000E+00 -4.86398508E-33  4.18863754E-32 -8.38588572E-49  0.00000000E+00
  5.01520641E-01  0.00000000E+00  0.00000000E+00  0.00000000E+00  1.00000000E+00
  2.08547466E-09  1.70878231E-03 -4.71926842E-03  1.14641765E-03  1.07835946E-18
  3.31764275E-02 -8.07001857E-02  1.96039108E-02  1.84401057E-17  1.00000000E+00
  1.70878231E-03  5.34778107E-02 -8.88138047E-02  2.15748934E-02  2.02940790E-17
  2.08315632E-01 -4.07776377E-01  9.90581576E-02  9.31774742E-17  2.33689906E-01
  1.00000000E+00  4.71926842E-03  8.88138047E-02 -1.32706592E-01  3.83962090E-02
  3.61167809E-17  1.63787764E-01 -2.00619027E-01  8.04176904E-02  7.56436164E-17
 -6.49099982E-18  3.33052919E-16  1.00000000E+00 -1.14641765E-03 -2.15748934E-02
  3.83962090E-02  1.60254358E-02 -8.77358764E-18 -3.97877736E-02  8.04176904E-02
  1.10887927E-01 -1.83755551E-17 -4.44207617E-18 -1.02507734E-16 -2.64286304E-32
  1.00000000E+00 -1.07835946E-18 -2.02940790E-17  3.61167809E-17 -8.77358764E-18
  2.53527484E-02 -3.74257339E-17  7.56436164E-17 -1.83755551E-17  1.30423213E-01
  8.81892052E-33  1.53725559E-32 -1.08987923E-47  0.00000000E+00  1.00000000E+00
  3.31764275E-02  2.08315632E-01 -1.63787764E-01  3.97877736E-02  3.74257339E-17
  4.33843362E-01 -5.44828120E-01  1.32351144E-01  1.24493990E-16  1.67279760E-01
  7.63640773E-01  1.63663542E-17  0.00000000E+00 -2.31185275E-32  1.00000000E+00
  8.07001857E-02  4.07776377E-01 -2.00619027E-01  8.04176904E-02  7.56436164E-17
  5.44828120E-01 -2.50361368E-01  1.66208893E-01  1.56341741E-16 -1.34682889E-17
 -3.37195016E-18  5.01520641E-01  0.00000000E+00  0.00000000E+00  0.00000000E+00
  1.00000000E+00 -1.96039108E-02 -9.90581576E-02  8.04176904E-02  1.10887927E-01
 -1.83755551E-17 -1.32351144E-01  1.66208893E-01  3.93467441E-01 -3.79789652E-17
  3.36707223E-18  0.00000000E+00  0.00000000E+00  5.01520641E-01  0.00000000E+00
  0.00000000E+00  0.00000000E+00  1.00000000E+00 -1.84401057E-17 -9.31774742E-17
  7.56436164E-17 -1.83755551E-17  1.30423213E-01 -1.24493990E-16  1.56341741E-16
 -3.79789652E-17  4.33843362E-01  2.99056090E-33  2.75851485E-33  0.00000000E+00
  0.00000000E+00  5.01520641E-01  0.00000000E+00  0.00000000E+00  0.00000000E+00
  1.00000000E+00  3.05108302E-02  2.26722029E-01  1.26712418E-01  2.36400756E-01
  3.30948788E-16  4.08823810E-01  2.72695021E-01  5.08752892E-01  7.12227643E-16
  1.95178195E-04  7.80790444E-03  1.36257505E-02  4.38591144E-03  7.25314042E-18
  7.77053316E-02  1.91331875E-01  6.15866745E-02  1.01848112E-16  1.00000000E+00
  6.65484376E-02  3.68570245E-01  6.99222612E-02  1.30450319E-01  1.82623676E-16
  6.68341687E-01  2.29660220E-01  4.28465106E-01  5.99828909E-16  1.72820982E-02
  1.13700759E-01  7.86776151E-02  2.53250676E-02  4.18809805E-17  2.82673803E-01
  3.62627758E-01  1.16724083E-01  1.93030839E-16  6.58292049E-01  1.00000000E+00
  1.95156198E-04  7.80732144E-03 -1.36248614E-02 -4.38547855E-03 -7.25246951E-18
  7.77024573E-02 -1.91326878E-01 -6.15830059E-02 -1.01842676E-16  3.05110820E-02
  2.26723303E-01 -1.26718447E-01 -2.36398821E-01 -3.30946778E-16  4.08824914E-01
 -2.72707040E-01 -5.08746945E-01 -7.12220819E-16  2.31666568E-04  2.53746601E-02
  1.00000000E+00  1.72815764E-02  1.13697762E-01 -7.86763746E-02 -2.53238212E-02
 -4.18791791E-17  2.82668355E-01 -3.62624786E-01 -1.16719222E-01 -1.93023998E-16
  6.65485826E-02  3.68570945E-01 -6.99252882E-02 -1.30448692E-01 -1.82621784E-16
  6.68342617E-01 -2.29670036E-01 -4.28459527E-01 -5.99822363E-16  2.53746601E-02
  1.34569833E-01  6.58292049E-01  1.00000000E+00
Kinetic Energy Matrix                      R   N=         253
  2.95401398E+01 -2.18540273E+00  1.71121096E+00  0.00000000E+00  0.00000000E+00
  4.25187706E+00  0.00000000E+00  0.00000000E+00  0.00000000E+00  4.25187706E+00
  0.00000000E+00  0.00000000E+00  0.00000000E+00  0.00000000E+00  4.25187706E+00
  1.31282499E-01  4.80047821E-01  0.00000000E+00  0.00000000E+00  0.00000000E+00
  4.05008700E-01  0.00000000E+00  0.00000000E+00  5.47243224E-01  0.00000000E+00
  0.00000000E+00  0.00000000E+00  6.75014500E-01  0.00000000E+00  0.00000000E+00
  0.00000000E+00  5.47243224E-01  0.00000000E+00  0.00000000E+00  0.00000000E+00
  6.75014500E-01  0.00000000E+00  0.00000000E+00  0.00000000E+00  0.00000000E+00
  5.47243224E-01  0.00000000E+00  0.00000000E+00  0.00000000E+00  6.75014500E-01
 -1.98890730E-07 -1.23712876E-02  2.59717419E-02 -6.30912688E-03 -5.93457946E-18
 -2.04576977E-03 -3.72208965E-02  9.04180242E-03  8.50502706E-18  2.95401398E+01
 -1.23712876E-02 -8.01046091E-02  6.21221169E-02 -1.50908753E-02 -1.41949909E-17
  1.77073355E-02 -2.06473832E-01  5.01571905E-02  4.71795604E-17 -2.18540273E+00
  1.71121096E+00 -2.59717419E-02 -6.21221169E-02 -2.38719407E-02 -9.41217727E-06
 -8.85341426E-21  8.19944578E-02 -2.44555900E-01  7.52690288E-02  7.08006100E-17
  0.00000000E+00  0.00000000E+00  4.25187706E+00  6.30912688E-03  1.50908753E-02
 -9.41217727E-06 -2.39083998E-02  2.15069571E-21 -1.99183189E-02  7.52690288E-02
  4.70071354E-02 -1.71990787E-17  0.00000000E+00  0.00000000E+00  0.00000000E+00
  4.25187706E+00  5.93457946E-18  1.41949909E-17 -8.85341426E-21  2.15069571E-21
 -2.39106862E-02 -1.87358486E-17  7.08006100E-17 -1.71990787E-17  6.52916946E-02
  0.00000000E+00  0.00000000E+00  0.00000000E+00  0.00000000E+00  4.25187706E+00
 -2.04576977E-03  1.77073355E-02 -8.19944578E-02  1.99183189E-02  1.87358486E-17
  7.78898469E-02 -2.44922191E-01  5.94971715E-02  5.59650644E-17  1.31282499E-01
  4.80047821E-01  0.00000000E+00  0.00000000E+00  0.00000000E+00  4.05008700E-01
  3.72208965E-02  2.06473832E-01 -2.44555900E-01  7.52690288E-02  7.08006100E-17
  2.44922191E-01 -2.97286768E-01  1.19594959E-01  1.12495088E-16  0.00000000E+00
  0.00000000E+00  5.47243224E-01  0.00000000E+00  0.00000000E+00  0.00000000E+00
  6.75014500E-01 -9.04180242E-03 -5.01571905E-02  7.52690288E-02  4.70071354E-02
 -1.71990787E-17 -5.94971715E-02  1.19594959E-01  1.65977735E-01 -2.73276159E-17
  0.00000000E+00  0.00000000E+00  0.00000000E+00  5.47243224E-01  0.00000000E+00
  0.00000000E+00  0.00000000E+00  6.75014500E-01 -8.50502706E-18 -4.71795604E-17
  7.08006100E-17 -1.71990787E-17  6.52916946E-02 -5.59650644E-17  1.12495088E-16
 -2.73276159E-17  1.95030071E-01  0.00000000E+00  0.00000000E+00  0.00000000E+00
  0.00000000E+00  5.47243224E-01  0.00000000E+00  0.00000000E+00  0.00000000E+00
  6.75014500E-01 -2.35662323E-02  2.57525116E-03  8.85081035E-02  1.65124957E-01
  2.31166369E-16  1.29455105E-01  1.94083446E-01  3.62091373E-01  5.06909128E-16
 -1.29292303E-03 -1.95865625E-02 -2.56767468E-02 -8.26493468E-03 -1.36680215E-17
 -2.54028676E-02  1.04762672E-02  3.37214309E-03  5.57663501E-18  1.39567828E+00
  1.99141234E-02  1.03430169E-01  3.95055133E-02  7.37033776E-02  1.03180903E-16
  1.54706695E-01  9.95381623E-02  1.85703163E-01  2.59974789E-16 -2.20080367E-03
 -4.98803353E-03  1.78591107E-02  5.74856248E-03  9.50660574E-18  1.63133652E-02
  9.41553468E-02  3.03071022E-02  5.01199513E-17  2.59735083E-01  2.41916700E-01
 -1.29280292E-03 -1.95855517E-02  2.56758298E-02  8.26436304E-03  1.36671609E-17
 -2.54030250E-02 -1.04732535E-02 -3.37106024E-03 -5.57487886E-18 -2.35661658E-02
  2.57625271E-03 -8.85129468E-02 -1.65124785E-01 -2.31166615E-16  1.29455890E-01
 -1.94092299E-01 -3.62087698E-01 -5.06905052E-16 -9.62835124E-04 -1.15770771E-02
  1.39567828E+00 -2.20090229E-03 -4.98873045E-03 -1.78582352E-02 -5.74808838E-03
 -9.50588067E-18  1.63119507E-02 -9.41531638E-02 -3.03053858E-02 -5.01174238E-17
  1.99142127E-02  1.03430558E-01 -3.95072618E-02 -7.37025298E-02 -1.03179934E-16
  1.54707098E-01 -9.95424813E-02 -1.85700865E-01 -2.59972121E-16 -1.15770771E-02
 -1.09746636E-02  2.59735083E-01  2.41916700E-01
Nuclear Attraction Matrix                  R   N=         253
 -6.55204666E+01 -5.86777917E+00 -1.45703330E+01  8.73276793E-02  5.95962541E-01
 -1.58386173E+01 -3.86381514E-02 -2.63349930E-01  2.56836986E-02 -1.56319682E+01
 -4.34255446E-17 -2.95905359E-16  6.58725560E-18 -1.01277877E-16 -1.55548999E+01
 -5.99408924E+00 -1.01132113E+01  5.80649392E-01 -2.53198729E-01 -2.83743133E-16
 -1.06137273E+01  1.20335966E-02  3.96088408E-01 -5.96750820E+00  2.91636178E-02
  1.08097932E-17  1.09231807E+00 -8.96564216E+00 -5.32426753E-03 -1.72272327E-01
  2.91636178E-02 -5.75235298E+00 -9.58213054E-17 -4.17944880E-01  1.57114810E-01
 -8.04269990E+00 -5.98396167E-18 -1.92953160E-16  1.08097932E-17 -9.58213054E-17
 -5.67908044E+00 -4.55147835E-16  1.00311284E-16 -2.60265312E-16 -7.83797110E+00
 -2.85081618E-08 -5.02112050E-02  1.44739926E-01 -3.51374021E-02 -3.30420004E-17
 -1.16700778E+00  2.87365481E+00 -6.97624525E-01 -6.56025842E-16 -6.55204700E+01
 -5.02112018E-02 -7.08355528E-01  1.18946836E+00 -2.89097331E-01 -2.71995101E-16
 -2.76579979E+00  5.48811691E+00 -1.32072946E+00 -1.23725978E-15 -5.86777995E+00
 -1.45703364E+01 -1.44739916E-01 -1.18946839E+00  1.79072806E+00 -5.10373228E-01
 -4.80754575E-16 -2.16366450E+00  2.75915580E+00 -1.03337829E+00 -9.73341808E-16
 -8.73272893E-02 -5.95959891E-01 -1.58386222E+01  3.51373992E-02  2.89097207E-01
 -5.10373015E-01 -1.80269104E-01  1.15410582E-16  5.44372211E-01 -1.08051889E+00
 -1.23274154E+00  2.28416482E-16  3.86379101E-02  2.63348279E-01  2.56823223E-02
 -1.56319702E+01  3.30419974E-17  2.71994932E-16 -4.80754288E-16  1.15410561E-16
 -3.03351774E-01  5.19682662E-16 -1.03684169E-15  2.33070356E-16 -1.48150243E+00
  4.34252581E-17  2.95903397E-16  6.58522280E-18 -1.01276569E-16 -1.55549030E+01
 -1.16700768E+00 -2.76579960E+00  2.16366452E+00 -5.44372927E-01 -5.19683622E-16
 -4.83125992E+00  6.06718112E+00 -1.47385749E+00 -1.38636099E-15 -5.99408980E+00
 -1.01132138E+01 -5.80646908E-01  2.53197104E-01  2.83741189E-16 -1.06137304E+01
 -2.87365457E+00 -5.48811642E+00  2.75915625E+00 -1.08052025E+00 -1.03684349E-15
 -6.06718114E+00  2.92740824E+00 -1.65769275E+00 -1.58930162E-15 -1.20335429E-02
 -3.96086727E-01 -5.96751130E+00  2.91623557E-02  1.08079266E-17 -1.09231485E+00
 -8.96564869E+00  6.97624460E-01  1.32072882E+00 -1.03337787E+00 -1.23274145E+00
  2.33070302E-16  1.47385513E+00 -1.65768979E+00 -3.23764161E+00  3.14306920E-16
  5.32423428E-03  1.72271216E-01  2.91623557E-02 -5.75235333E+00 -9.58200013E-17
  4.17941870E-01  1.57111550E-01 -8.04269922E+00  6.56025778E-16  1.23725896E-15
 -9.73341213E-16  2.28416253E-16 -1.48150227E+00  1.38635781E-15 -1.58929762E-15
  3.14306627E-16 -3.59246579E+00  5.98392218E-18  1.92951830E-16  1.08079266E-17
 -9.58200013E-17 -5.67908186E+00  4.55144099E-16  1.00306462E-16 -2.60261811E-16
 -7.83797326E+00 -1.04999589E+00 -2.74259580E+00 -1.32024694E+00 -2.67286588E+00
 -3.73077430E-15 -3.84190701E+00 -2.11258628E+00 -4.24833604E+00 -5.93120496E-15
 -5.82459797E-03 -9.21108849E-02 -1.60497975E-01 -4.21528727E-02 -7.26261404E-17
 -7.66240565E-01 -1.85389115E+00 -4.71918476E-01 -8.18711339E-16 -8.42716571E+00
 -2.35525704E+00 -4.66665143E+00 -4.97972070E-01 -1.55171909E+00 -2.13937632E-15
 -6.20468475E+00 -9.76425422E-01 -3.32697301E+00 -4.57793420E-15 -6.06296606E-01
 -1.45947755E+00 -1.00973073E+00 -2.31914506E-01 -4.12080106E-16 -2.81023514E+00
 -3.54332150E+00 -6.77942470E-01 -1.26301826E-15 -5.16215908E+00 -6.84275215E+00
 -5.82392250E-03 -9.21041300E-02  1.60487828E-01  4.21485022E-02  7.26192515E-17
 -7.66214053E-01  1.85384599E+00  4.71888166E-01  8.18666053E-16 -1.05000478E+00
 -2.74260954E+00  1.32031469E+00  2.67284275E+00  3.73074984E-15 -3.84191320E+00
  2.11268568E+00  4.24828065E+00  5.93114016E-15 -3.02654951E-03 -2.59817452E-01
 -8.42715564E+00 -6.06278119E-01 -1.45943902E+00  1.00971430E+00  2.31901475E-01
  4.12060932E-16 -2.81018290E+00  3.54329325E+00  6.77906921E-01  1.26296759E-15
 -2.35526237E+00 -4.66665901E+00  4.98007601E-01  1.55170014E+00  2.13935430E-15
 -6.20468647E+00  9.76503987E-01  3.32692683E+00  4.57787976E-15 -2.59816911E-01
 -1.28408176E+00 -5.16215192E+00 -6.84273881E+00
Core Hamiltonian Matrix                    R   N=         253
 -3.59803268E+01 -8.05318190E+00 -1.28591221E+01  8.73276793E-02  5.95962541E-01
 -1.15867402E+01 -3.86381514E-02 -2.63349930E-01  2.56836986E-02 -1.13800911E+01
 -4.34255446E-17 -2.95905359E-16  6.58725560E-18 -1.01277877E-16 -1.13030228E+01
 -5.86280674E+00 -9.63316348E+00  5.80649392E-01 -2.53198729E-01 -2.83743133E-16
 -1.02087186E+01  1.20335966E-02  3.96088408E-01 -5.42026497E+00  2.91636178E-02
  1.08097932E-17  1.09231807E+00 -8.29062766E+00 -5.32426753E-03 -1.72272327E-01
  2.91636178E-02 -5.20510975E+00 -9.58213054E-17 -4.17944880E-01  1.57114810E-01
 -7.36768540E+00 -5.98396167E-18 -1.92953160E-16  1.08097932E-17 -9.58213054E-17
 -5.13183722E+00 -4.55147835E-16  1.00311284E-16 -2.60265312E-16 -7.16295660E+00
 -2.27398892E-07 -6.25824926E-02  1.70711667E-01 -4.14465290E-02 -3.89765799E-17
 -1.16905355E+00  2.83643392E+00 -6.88582722E-01 -6.47520815E-16 -3.59803302E+01
 -6.25824894E-02 -7.88460137E-01  1.25159048E+00 -3.04188207E-01 -2.86190092E-16
 -2.74809245E+00  5.28164307E+00 -1.27057227E+00 -1.19008022E-15 -8.05318268E+00
 -1.28591254E+01 -1.70711658E-01 -1.25159051E+00  1.76685612E+00 -5.10382640E-01
 -4.80763429E-16 -2.08167004E+00  2.51459990E+00 -9.58109264E-01 -9.02541198E-16
 -8.73272893E-02 -5.95959891E-01 -1.15867451E+01  4.14465261E-02  3.04188083E-01
 -5.10382427E-01 -2.04177503E-01  1.15412732E-16  5.24453892E-01 -1.00524986E+00
 -1.18573440E+00  2.11217404E-16  3.86379101E-02  2.63348279E-01  2.56823223E-02
 -1.13800932E+01  3.89765769E-17  2.86189923E-16 -4.80763141E-16  1.15412711E-16
 -3.27262460E-01  5.00946813E-16 -9.66041083E-16  2.15871277E-16 -1.41621073E+00
  4.34252581E-17  2.95903397E-16  6.58522280E-18 -1.01276569E-16 -1.13030259E+01
 -1.16905345E+00 -2.74809226E+00  2.08167007E+00 -5.24454608E-01 -5.00947774E-16
 -4.75337007E+00  5.82225893E+00 -1.41436031E+00 -1.33039592E-15 -5.86280730E+00
 -9.63316601E+00 -5.80646908E-01  2.53197104E-01  2.83741189E-16 -1.02087217E+01
 -2.83643367E+00 -5.28164259E+00  2.51460035E+00 -1.00525122E+00 -9.66042884E-16
 -5.82225895E+00  2.63012147E+00 -1.53809779E+00 -1.47680653E-15 -1.20335429E-02
 -3.96086727E-01 -5.42026807E+00  2.91623557E-02  1.08079266E-17 -1.09231485E+00
 -8.29063419E+00  6.88582657E-01  1.27057163E+00 -9.58108844E-01 -1.18573431E+00
  2.15871224E-16  1.41435796E+00 -1.53809483E+00 -3.07166387E+00  2.86979304E-16
  5.32423428E-03  1.72271216E-01  2.91623557E-02 -5.20511011E+00 -9.58200013E-17
  4.17941870E-01  1.57111550E-01 -7.36768472E+00  6.47520751E-16  1.19007940E-15
 -9.02540603E-16  2.11217175E-16 -1.41621057E+00  1.33039275E-15 -1.47680253E-15
  2.86979011E-16 -3.39743572E+00  5.98392218E-18  1.92951830E-16  1.08079266E-17
 -9.58200013E-17 -5.13183863E+00  4.55144099E-16  1.00306462E-16 -2.60261811E-16
 -7.16295876E+00 -1.07356212E+00 -2.74002055E+00 -1.23173883E+00 -2.50774092E+00
 -3.49960793E-15 -3.71245191E+00 -1.91850283E+00 -3.88624467E+00 -5.42429583E-15
 -7.11752100E-03 -1.11697447E-01 -1.86174722E-01 -5.04178074E-02 -8.62941619E-17
 -7.91643433E-01 -1.84341488E+00 -4.68546333E-01 -8.13134704E-16 -7.03148743E+00
 -2.33534292E+00 -4.56322126E+00 -4.58466557E-01 -1.47801571E+00 -2.03619542E-15
 -6.04997805E+00 -8.76887259E-01 -3.14126984E+00 -4.31795941E-15 -6.08497409E-01
 -1.46446559E+00 -9.91871617E-01 -2.26165943E-01 -4.02573501E-16 -2.79392177E+00
 -3.44916615E+00 -6.47635368E-01 -1.21289831E-15 -4.90242400E+00 -6.60083545E+00
 -7.11672541E-03 -1.11689682E-01  1.86163658E-01  5.04128653E-02  8.62864124E-17
 -7.91617078E-01  1.84337273E+00  4.68517106E-01  8.13091174E-16 -1.07357094E+00
 -2.74003328E+00  1.23180175E+00  2.50771797E+00  3.49958322E-15 -3.71245731E+00
  1.91859338E+00  3.88619295E+00  5.42423511E-15 -3.98938463E-03 -2.71394530E-01
 -7.03147736E+00 -6.08479021E-01 -1.46442775E+00  9.91856062E-01  2.26153387E-01
  4.02555051E-16 -2.79387095E+00  3.44914008E+00  6.47601535E-01  1.21285016E-15
 -2.33534816E+00 -4.56322846E+00  4.58500340E-01  1.47799761E+00  2.03617437E-15
 -6.04997937E+00  8.76961506E-01  3.14122597E+00  4.31790764E-15 -2.71393988E-01
 -1.29505643E+00 -4.90241683E+00 -6.60082211E+00
Multipole Matrix (1,0,0)                   R   N=         253
  1.20840008E+00  2.82390901E-01  1.20840008E+00  7.27077806E-02  4.96075284E-01
  1.20840008E+00  0.00000000E+00  0.00000000E+00  0.00000000E+00  1.20840008E+00
  0.00000000E+00  0.00000000E+00  0.00000000E+00  0.00000000E+00  1.20840008E+00
  2.02140875E-01  9.22783572E-01  4.82583279E-01  0.00000000E+00  0.00000000E+00
  1.20840008E+00  1.00190010E-02  3.29089724E-01  6.06037583E-01  0.00000000E+00
  0.00000000E+00  9.62240114E-01  1.20840008E+00  0.00000000E+00  0.00000000E+00
  0.00000000E+00  6.06037583E-01  0.00000000E+00  0.00000000E+00  0.00000000E+00
  1.20840008E+00  0.00000000E+00  0.00000000E+00  0.00000000E+00  0.00000000E+00
  6.06037583E-01  0.00000000E+00  0.00000000E+00  0.00000000E+00  1.20840008E+00
  4.23626053E-15 -1.57882246E-03  4.51628454E-03 -1.06589486E-03 -1.00261698E-18
 -3.75625582E-02  9.34303904E-02 -2.22074132E-02 -2.08890486E-17 -1.20839602E+00
  1.57882940E-03  1.08630433E-07  1.35486249E-02  1.20979110E-03  1.13797068E-18
 -1.40650160E-01  3.61631015E-01 -6.63617752E-02 -6.24221442E-17 -2.82389952E-01
 -1.20839602E+00  4.51630372E-03  1.35489857E-02 -2.69569272E-07  7.44231069E-03
  7.00049071E-18  4.87747203E-03 -4.24411565E-02  1.92990711E-03  1.81533631E-18
  7.27077806E-02  4.96075284E-01 -1.20839602E+00 -1.06589951E-03  1.20970345E-03
 -7.44215470E-03  3.25527542E-08 -1.78219454E-23  2.93015788E-02 -7.46408764E-02
 -8.15501325E-02  1.36388421E-17  0.00000000E+00  0.00000000E+00  0.00000000E+00
 -1.20839602E+00 -1.00262136E-18  1.13788824E-18 -7.00034398E-18 -1.78219454E-23
  5.14994910E-08  2.75620622E-17 -7.02097485E-17  1.36388421E-17 -9.60497590E-02
  0.00000000E+00  0.00000000E+00  0.00000000E+00  0.00000000E+00 -1.20839602E+00
  3.75626930E-02  1.40651007E-01  4.87680662E-03  2.93017404E-02  2.75622142E-17
  8.81273778E-07  4.17460379E-01  2.68847244E-07  2.52886867E-22 -2.02140195E-01
 -9.22780469E-01  4.82583279E-01  0.00000000E+00  0.00000000E+00 -1.20839602E+00
  9.34307183E-02  3.61632672E-01  4.24403414E-02  7.46412031E-02  7.02100558E-17
  4.17462593E-01 -5.08563523E-07  1.27353917E-01  1.19793429E-16  1.00190010E-02
  3.29089724E-01 -6.06035545E-01  0.00000000E+00  0.00000000E+00  9.62240114E-01
 -1.20839602E+00 -2.22074928E-02 -6.63621776E-02 -1.92958040E-03  8.15505830E-02
 -1.36389167E-17 -2.68847244E-07 -1.27353242E-01  7.99257448E-07 -7.71473509E-23
  0.00000000E+00  0.00000000E+00  0.00000000E+00 -6.06035545E-01  0.00000000E+00
  0.00000000E+00  0.00000000E+00 -1.20839602E+00 -2.08891235E-17 -6.24225227E-17
 -1.81502899E-18 -1.36389167E-17  9.60502888E-02 -2.52886867E-22 -1.19792793E-16
 -7.71473509E-23  8.81273778E-07  0.00000000E+00  0.00000000E+00  0.00000000E+00
  0.00000000E+00 -6.06035545E-01  0.00000000E+00  0.00000000E+00  0.00000000E+00
 -1.20839602E+00  3.88246503E-02  3.59765171E-01  3.00118375E-01  3.69620976E-01
  5.17450183E-16  7.56420813E-01  7.21645146E-01  9.43972407E-01  1.32151238E-15
 -1.85879794E-04  6.70876502E-04  3.88490310E-03  2.17872753E-04  3.60304053E-19
  9.02083919E-02  2.66837171E-01  7.23043922E-02  1.19572389E-16  2.09261744E+00
  8.15367670E-02  4.92609539E-01  3.37499115E-01  1.72269927E-01  2.41168957E-16
  1.02861242E+00  1.15869305E+00  6.59429959E-01  9.23167716E-16 -1.97910969E-02
 -8.34056526E-02  1.20690424E-02 -1.98999258E-02 -3.29092272E-17  7.35307773E-03
  3.50005063E-01  3.03629572E-03  5.02123207E-18  1.37755342E+00  2.09261744E+00
  1.85859004E-04 -6.70901364E-04  3.88475312E-03  2.17895661E-04  3.60344172E-19
 -9.02067409E-02  2.66833920E-01  7.23014226E-02  1.19568220E-16 -3.88249278E-02
 -3.59769850E-01  3.00129754E-01  3.69620492E-01  5.17450594E-16 -7.56432051E-01
  7.21674209E-01  9.43972927E-01  1.32151589E-15 -3.76470754E-09 -3.27567202E-02
 -2.09264994E+00  1.97905572E-02  8.34033266E-02  1.20680887E-02 -1.98989287E-02
 -3.29077824E-17 -7.35565255E-03  3.50001907E-01  3.03729098E-03  5.02290913E-18
 -8.15367206E-02 -4.92610930E-01  3.37503628E-01  1.72267854E-01  2.41166562E-16
 -1.02862028E+00  1.15871148E+00  6.59425490E-01  9.23163406E-16  3.27558955E-02
 -2.18683286E-06 -1.37757482E+00 -2.09264994E+00
Multipole Matrix (0,1,0)                   R   N=         253
 -2.93548694E-01 -6.85993668E-02 -2.93548694E-01  0.00000000E+00  0.00000000E+00
 -2.93548694E-01  7.27077806E-02  4.96075284E-01  0.00000000E+00 -2.93548694E-01
  0.00000000E+00  0.00000000E+00  0.00000000E+00  0.00000000E+00 -2.93548694E-01
 -4.91047550E-02 -2.24165752E-01  0.00000000E+00  4.82583279E-01  0.00000000E+00
 -2.93548694E-01  0.00000000E+00  0.00000000E+00 -1.47220729E-01  0.00000000E+00
  0.00000000E+00  0.00000000E+00 -2.93548694E-01  1.00190010E-02  3.29089724E-01
  0.00000000E+00 -1.47220729E-01  0.00000000E+00  9.62240114E-01  0.00000000E+00
 -2.93548694E-01  0.00000000E+00  0.00000000E+00  0.00000000E+00  0.00000000E+00
 -1.47220729E-01  0.00000000E+00  0.00000000E+00  0.00000000E+00 -2.93548694E-01
 -2.75440658E-15  3.83530475E-04 -1.06589095E-03  3.87420175E-04  2.43557578E-19