Jobname.Temp
FOPT      R                             6-31G               
Number of atoms                            I                4
Charge                                     I                0
Multiplicity                               I                1
Number of electrons                        I               18
Number of alpha electrons                  I                9
Number of beta electrons                   I                9
Atomic numbers                             I   N=           4
           8           8           1           1
Current cartesian coordinates              R   N=          12
  1.20839878E+00 -2.93546981E-01  7.61450048E-17 -1.20840078E+00  2.93547747E-01
 -7.61451513E-17  2.09264245E+00  1.35607732E+00 -6.02192927E-18 -2.09262649E+00
 -1.35608345E+00  6.02310112E-18
Nuclear charges                            R   N=           4
  8.00000000E+00  8.00000000E+00  1.00000000E+00  1.00000000E+00
Number of basis functions                  I               22
Number of contracted shells                I               10
Number of primitive shells                 I               28
Highest angular momentum                   I                1
Largest degree of contraction              I                6
Shell types                                I   N=          10
           0          -1          -1           0          -1          -1
           0           0           0           0
Number of primitives per shell             I   N=          10
           6           3           1           6           3           1
           3           1           3           1
Shell to atom map                          I   N=          10
           1           1           1           2           2           2
           3           3           4           4
Primitive exponents                        R   N=          28
  5.48467170E+03  8.25234950E+02  1.88046960E+02  5.29645000E+01  1.68975700E+01
  5.79963530E+00  1.55396160E+01  3.59993360E+00  1.01376180E+00  2.70005800E-01
  5.48467170E+03  8.25234950E+02  1.88046960E+02  5.29645000E+01  1.68975700E+01
  5.79963530E+00  1.55396160E+01  3.59993360E+00  1.01376180E+00  2.70005800E-01
  1.87311370E+01  2.82539370E+00  6.40121700E-01  1.61277800E-01  1.87311370E+01
  2.82539370E+00  6.40121700E-01  1.61277800E-01
Contraction coefficients                   R   N=          28
  1.83109981E-03  1.39500985E-02  6.84450927E-02  2.32714275E-01  4.70192950E-01
  3.58520862E-01 -1.10777504E-01 -1.48026305E-01  1.13076704E+00  1.00000000E+00
  1.83109981E-03  1.39500985E-02  6.84450927E-02  2.32714275E-01  4.70192950E-01
  3.58520862E-01 -1.10777504E-01 -1.48026305E-01  1.13076704E+00  1.00000000E+00
  3.34945995E-02  2.34726947E-01  8.13757318E-01  1.00000000E+00  3.34945995E-02
  2.34726947E-01  8.13757318E-01  1.00000000E+00
P(S=P) Contraction coefficients            R   N=          28
  0.00000000E+00  0.00000000E+00  0.00000000E+00  0.00000000E+00  0.00000000E+00
  0.00000000E+00  7.08742995E-02  3.39752798E-01  7.27158595E-01  1.00000000E+00
  0.00000000E+00  0.00000000E+00  0.00000000E+00  0.00000000E+00  0.00000000E+00
  0.00000000E+00  7.08742995E-02  3.39752798E-01  7.27158595E-01  1.00000000E+00
  0.00000000E+00  0.00000000E+00  0.00000000E+00  0.00000000E+00  0.00000000E+00
  0.00000000E+00  0.00000000E+00  0.00000000E+00
Coordinates of each shell                  R   N=          30
  1.20839878E+00 -2.93546981E-01  7.61450048E-17  1.20839878E+00 -2.93546981E-01
  7.61450048E-17  1.20839878E+00 -2.93546981E-01  7.61450048E-17 -1.20840078E+00
  2.93547747E-01 -7.61451513E-17 -1.20840078E+00  2.93547747E-01 -7.61451513E-17
 -1.20840078E+00  2.93547747E-01 -7.61451513E-17  2.09264245E+00  1.35607732E+00
 -6.02192927E-18  2.09264245E+00  1.35607732E+00 -6.02192927E-18 -2.09262649E+00
 -1.35608345E+00  6.02310112E-18 -2.09262649E+00 -1.35608345E+00  6.02310112E-18
Current cartesian coordinates              R   N=          12
  1.20839878E+00 -2.93546981E-01  7.61450048E-17 -1.20840078E+00  2.93547747E-01
 -7.61451513E-17  2.09264245E+00  1.35607732E+00 -6.02192927E-18 -2.09262649E+00
 -1.35608345E+00  6.02310112E-18
Orthonormalization Matrix                  R   N=         253
 -2.49667935E-03 -4.95295602E-02 -9.05756614E-17 -3.67241031E-04  3.64200957E-03
  3.66401260E-04  1.61698778E-16  2.89752993E-02 -1.81766205E-03  1.10807051E-03
 -6.50286955E-01 -2.02292686E-02  1.79195725E-16 -2.30072684E-02  1.12990854E+00
 -4.68214079E-17  2.34778677E-02 -2.93409502E-01 -9.65817105E-02 -1.26884229E-16
  7.02104593E-16  9.25989655E-03 -1.60812885E-17  2.66677319E-16 -4.88021521E-16
 -1.02106579E-16  1.24488953E-01  1.12209358E-01  2.34778552E-02 -9.10876481E-04
 -6.90440723E-18 -7.05803110E-17 -7.40028462E-04 -7.29481285E-02 -2.67838692E-16
 -2.05880322E-01  1.16350765E-16  1.27737688E-02  1.34293590E-02 -3.09198076E-02
 -7.29481285E-02 -1.27736715E-02 -3.45568577E-01  5.55832623E-02  7.52912199E-04
 -1.27736715E-02 -7.59921666E-17  1.20538861E-16 -3.72595568E-16  1.98339817E-16
 -2.55230221E-02  4.77408456E-03 -3.31113081E-02  3.41285657E-16  4.86172362E-03
  1.56666285E-03 -1.07371300E-01  1.55350441E+00  1.32736430E-02 -2.30072684E-02
 -2.02644654E-01 -3.84418209E-01 -9.72288504E-17 -3.14949790E-01 -4.79354704E-17
  1.10804049E-03  7.25770225E-17 -2.92270623E-16 -1.02886279E+00 -1.12210571E-01
  1.45756618E-01  1.21543334E+00  1.79195725E-16 -4.35845679E-17 -2.19424153E-16
 -1.02886168E+00  1.13493512E+00 -3.50998848E-16  2.79888133E-02  4.71598594E-16
 -1.31942156E-02  4.65406332E-02  5.40738951E-02 -7.48806511E-03 -8.68566847E-03
 -1.07371300E-01 -4.95296462E-02 -5.15993664E-02  3.01418397E-02 -5.24008620E-02
 -9.26009268E-03  5.83711965E-18  1.39875452E-01  7.48804117E-03  3.09195895E-02
  1.39524637E-02 -2.49666264E-03  3.75445189E-04 -1.97091511E-16  2.66677319E-16
  3.21245733E+00 -2.46704338E-03  2.34778677E-02 -7.40028462E-04  3.64200957E-03
 -5.15993664E-02 -2.43308503E-17 -1.01684647E-16  7.55949802E-02 -1.82125773E-16
  2.05142211E-02 -2.46704338E-03 -1.03055946E+00 -3.19894358E-01  1.12990846E+00
 -2.61829685E-02 -2.05878668E-01 -3.78420120E-01 -4.31141055E-16  6.02770797E-01
  1.10804049E-03  4.78132372E-16  1.58655221E-16 -4.77482767E-16 -2.98978977E-16
 -2.14455425E-01 -3.47488501E-01 -6.50286955E-01 -1.60812885E-17  1.81765227E-03
  7.02104593E-16 -7.05803110E-17  2.79888133E-02 -2.79926113E-01 -6.35586736E-01
  1.09592560E-02 -1.84822672E-17  3.75469165E-04  2.05142211E-02  1.02281830E+00
 -1.17993660E-16  2.73265396E-02  1.03055963E+00  1.15233853E-16 -8.54678510E-02
 -2.02292874E-02  2.19108819E-16  1.81765227E-03  7.52912199E-04  6.16350427E-04
 -8.68566847E-03 -2.02292686E-02  7.16434599E-01  5.75805512E-17  8.70687680E-17
  4.86173559E-03  9.25989655E-03 -9.14670510E-03 -1.45755687E-01  1.91279034E-16
  1.58908636E+00 -9.14670510E-03 -2.57540320E-02 -1.09593562E-02  2.81811205E-03
  1.12999819E-02  1.92176326E-01  2.22887077E-01 -7.16812666E-03  6.02770797E-01
  4.78132372E-16  1.34292826E-02 -2.85028996E-16 -3.14949790E-01 -1.97091511E-16
 -1.41971674E-16  9.14788816E-03  1.13493530E+00 -3.09198076E-02 -2.89751206E-02
  2.05141781E-02 -1.82125773E-16  2.46751733E-03  5.46239725E-03  1.11943289E+00
 -1.31935304E-02 -3.47488501E-01 -1.66182760E-02  7.40031540E-04 -7.52884909E-04
  3.75445189E-04  5.40734847E-02  3.41285657E-16  1.10807051E-03 -1.66265837E-02
 -1.07371325E-01  5.75805512E-17 -4.31141055E-16 -9.26009268E-03 -1.81766205E-03
 -6.16334020E-04 -1.26884229E-16 -2.61835485E-02  3.64209456E-03 -1.32734565E-02
  1.12209358E-01  1.12999819E-02  1.92175104E-01  1.16350765E-16 -1.07371325E-01
 -1.80031801E-16 -3.45568577E-01 -4.14743965E-17  8.63041668E-02 -4.68214079E-17
  1.39874972E-01 -3.67241031E-04  2.20979231E-16 -3.01422222E-02  5.79428600E-17
  1.61698778E-16  1.91279034E-16 -6.90440723E-18 -9.05756614E-17  7.29482276E-02
 -1.32734565E-02 -7.48806511E-03 -6.58376792E-18 -9.72288504E-17  1.09592560E-02
  8.68567311E-03  7.48804117E-03  4.65413940E-02 -7.16812666E-03  2.73265016E-02
  2.30071640E-02  1.55350413E+00 -1.02886168E+00  3.75469165E-04 -5.67486561E-17
 -9.10876481E-04  4.05804119E-16  3.64209456E-03  1.39524637E-02  5.24016813E-02
  2.81814922E-03  2.30071640E-02 -1.45755687E-01  3.09195895E-02 -4.95295602E-02
 -6.16334020E-04  7.40031540E-04  1.02281830E+00
Overlap Matrix                             R   N=         253
  1.00000000E+00  2.33689906E-01  1.00000000E+00  9.49029906E-17 -2.07678198E-16
  1.00000000E+00 -9.27110850E-18 -1.73079592E-17  0.00000000E+00  1.00000000E+00
 -2.19827542E-32  4.78399703E-32 -3.11503176E-47  2.72469806E-48  1.00000000E+00
  1.67279760E-01  7.63640773E-01  0.00000000E+00 -2.96934875E-17  3.63406066E-33
  1.00000000E+00  1.34461497E-17  0.00000000E+00  5.01520641E-01  0.00000000E+00
  0.00000000E+00  0.00000000E+00  1.00000000E+00  0.00000000E+00 -5.19516529E-17
  0.00000000E+00  5.01520641E-01  2.09647143E-49  0.00000000E+00  0.00000000E+00
  1.00000000E+00 -4.79097553E-33 -7.48723342E-34  0.00000000E+00  2.09647143E-49
  5.01520641E-01  0.00000000E+00  0.00000000E+00  0.00000000E+00  1.00000000E+00
  2.08537353E-09  1.70875676E-03 -4.71920440E-03  1.14640041E-03  1.23651026E-18
  3.31762824E-02 -8.06999484E-02  1.96038244E-02  2.11447325E-17  1.00000000E+00
  1.70875676E-03  5.34773681E-02 -8.88131714E-02  2.15747079E-02  2.32705322E-17
  2.08314900E-01 -4.07775531E-01  9.90578068E-02  1.06843990E-16  2.33689906E-01
  1.00000000E+00  4.71920440E-03  8.88131714E-02 -1.32705825E-01  3.83959116E-02
  4.14139233E-17  1.63787404E-01 -2.00619243E-01  8.04175100E-02  8.67385211E-17
  6.69560275E-18  2.07678198E-16  1.00000000E+00 -1.14640041E-03 -2.15747079E-02
  3.83959116E-02  1.60252955E-02 -1.00603693E-17 -3.97876277E-02  8.04175100E-02
  1.10887526E-01 -2.10707289E-17 -3.12905316E-18 -4.32690316E-17 -3.50721397E-32
  1.00000000E+00 -1.23651026E-18 -2.32705322E-17  4.14139233E-17 -1.00603693E-17
  2.53525221E-02 -4.29150316E-17  8.67385211E-17 -2.10707289E-17  1.30422740E-01
 -5.75707881E-32 -3.84306201E-32 -3.11503176E-47  1.05122775E-47  1.00000000E+00
  3.31762824E-02  2.08314900E-01 -1.63787404E-01  3.97876277E-02  4.29150316E-17
  4.33842383E-01 -5.44827671E-01  1.32350841E-01  1.42753937E-16  1.67279760E-01
  7.63640773E-01  1.04116592E-16 -4.09158856E-18 -2.67525881E-32  1.00000000E+00
  8.06999484E-02  4.07775531E-01 -2.00619243E-01  8.04175100E-02  8.67385211E-17
  5.44827671E-01 -2.50362764E-01  1.66208750E-01  1.79273161E-16  2.87576520E-18
 -1.24232465E-17  5.01520641E-01  0.00000000E+00 -5.33478518E-48  0.00000000E+00
  1.00000000E+00 -1.96038244E-02 -9.90578068E-02  8.04175100E-02  1.10887526E-01
 -2.10707289E-17 -1.32350841E-01  1.66208750E-01  3.93466556E-01 -4.35494648E-17
  0.00000000E+00  8.42987540E-19  0.00000000E+00  5.01520641E-01  2.09647143E-49
  0.00000000E+00  0.00000000E+00  1.00000000E+00 -2.11447325E-17 -1.06843990E-16
  8.67385211E-17 -2.10707289E-17  1.30422740E-01 -1.42753937E-16  1.79273161E-16
 -4.35494648E-17  4.33842383E-01 -5.57554278E-33  3.50723820E-33 -5.33478518E-48
  2.09647143E-49  5.01520641E-01  0.00000000E+00  0.00000000E+00  0.00000000E+00
  1.00000000E+00  3.05108209E-02  2.26721982E-01  1.26716159E-01  2.36398702E-01
  3.57578175E-16  4.08823769E-01  2.72703108E-01  5.08748539E-01  7.69536263E-16
  1.95158953E-04  7.80739447E-03  1.36249636E-02  4.38556111E-03  7.68531321E-18
  7.77028174E-02  1.91327376E-01  6.15838634E-02  1.07920347E-16  1.00000000E+00
  6.65484323E-02  3.68570219E-01  6.99243367E-02  1.30449207E-01  1.97318297E-16
  6.68341653E-01  2.29667042E-01  4.28461461E-01  6.48093519E-16  1.72816417E-02
  1.13698138E-01  7.86764774E-02  2.53241410E-02  4.43783475E-17  2.82669037E-01
  3.62624916E-01  1.16720585E-01  2.04542642E-16  6.58292049E-01  1.00000000E+00
  1.95170927E-04  7.80771182E-03 -1.36254556E-02 -4.38577178E-03 -7.68566722E-18
  7.77043820E-02 -1.91330209E-01 -6.15855097E-02 -1.07923019E-16  3.05109859E-02
  2.26722817E-01 -1.26714103E-01 -2.36400655E-01 -3.57580838E-16  4.08824492E-01
 -2.72698057E-01 -5.08751571E-01 -7.69540226E-16  2.31664474E-04  2.53745669E-02
  1.00000000E+00  1.72819258E-02  1.13699769E-01 -7.86771990E-02 -2.53246752E-02
 -4.43791962E-17  2.82672003E-01 -3.62626747E-01 -1.16722567E-01 -2.04545711E-16
  6.65485273E-02  3.68570678E-01 -6.99230057E-02 -1.30449918E-01 -1.97319212E-16
  6.68342262E-01 -2.29662587E-01 -4.28463640E-01 -6.48096292E-16  2.53745669E-02
  1.34569527E-01  6.58292049E-01  1.00000000E+00
Kinetic Energy Matrix                      R   N=         253
  2.95401398E+01 -2.18540273E+00  1.71121096E+00  0.00000000E+00  0.00000000E+00
  4.25187706E+00  0.00000000E+00  0.00000000E+00  0.00000000E+00  4.25187706E+00
  0.00000000E+00  0.00000000E+00  0.00000000E+00  0.00000000E+00  4.25187706E+00
  1.31282499E-01  4.80047821E-01  0.00000000E+00  0.00000000E+00  0.00000000E+00
  4.05008700E-01  0.00000000E+00  0.00000000E+00  5.47243224E-01  0.00000000E+00
  0.00000000E+00  0.00000000E+00  6.75014500E-01  0.00000000E+00  0.00000000E+00
  0.00000000E+00  5.47243224E-01  0.00000000E+00  0.00000000E+00  0.00000000E+00
  6.75014500E-01  0.00000000E+00  0.00000000E+00  0.00000000E+00  0.00000000E+00
  5.47243224E-01  0.00000000E+00  0.00000000E+00  0.00000000E+00  6.75014500E-01
 -1.98881670E-07 -1.23711472E-02  2.59715130E-02 -6.30906203E-03 -6.80496958E-18
 -2.04583667E-03 -3.72206024E-02  9.04171772E-03  9.75241864E-18  2.95401398E+01
 -1.23711472E-02 -8.01044237E-02  6.21224394E-02 -1.50909315E-02 -1.62771153E-17
  1.77069644E-02 -2.06472805E-01  5.01568673E-02  5.40993186E-17 -2.18540273E+00
  1.71121096E+00 -2.59715130E-02 -6.21224394E-02 -2.38705667E-02 -9.74591496E-06
 -1.05119675E-20  8.19940183E-02 -2.44555574E-01  7.52687315E-02  8.11850361E-17
  0.00000000E+00  0.00000000E+00  4.25187706E+00  6.30906203E-03  1.50909315E-02
 -9.74591496E-06 -2.39083187E-02  2.55359227E-21 -1.99181830E-02  7.52687315E-02
  4.70067909E-02 -1.97216631E-17  0.00000000E+00  0.00000000E+00  0.00000000E+00
  4.25187706E+00  6.80496958E-18  1.62771153E-17 -1.05119675E-20  2.55359227E-21
 -2.39106862E-02 -2.14838004E-17  8.11850361E-17 -1.97216631E-17  6.52912511E-02
  0.00000000E+00  0.00000000E+00  0.00000000E+00  0.00000000E+00  4.25187706E+00
 -2.04583667E-03  1.77069644E-02 -8.19940183E-02  1.99181830E-02  2.14838004E-17
  7.78894067E-02 -2.44921657E-01  5.94969546E-02  6.41735594E-17  1.31282499E-01
  4.80047821E-01  0.00000000E+00  0.00000000E+00  0.00000000E+00  4.05008700E-01
  3.72206024E-02  2.06472805E-01 -2.44555574E-01  7.52687315E-02  8.11850361E-17
  2.44921657E-01 -2.97287355E-01  1.19594755E-01  1.28995193E-16  0.00000000E+00
  0.00000000E+00  5.47243224E-01  0.00000000E+00  0.00000000E+00  0.00000000E+00
  6.75014500E-01 -9.04171772E-03 -5.01568673E-02  7.52687315E-02  4.70067909E-02
 -1.97216631E-17 -5.94969546E-02  1.19594755E-01  1.65977122E-01 -3.13358206E-17
  0.00000000E+00  0.00000000E+00  0.00000000E+00  5.47243224E-01  0.00000000E+00
  0.00000000E+00  0.00000000E+00  6.75014500E-01 -9.75241864E-18 -5.40993186E-17
  8.11850361E-17 -1.97216631E-17  6.52912511E-02 -6.41735594E-17  1.28995193E-16
 -3.13358206E-17  1.95029366E-01  0.00000000E+00  0.00000000E+00  0.00000000E+00
  0.00000000E+00  5.47243224E-01  0.00000000E+00  0.00000000E+00  0.00000000E+00
  6.75014500E-01 -2.35662348E-02  2.57521428E-03  8.85106935E-02  1.65123479E-01
  2.49766821E-16  1.29455076E-01  1.94089191E-01  3.62088254E-01  5.47696987E-16
 -1.29281796E-03 -1.95856783E-02 -2.56759274E-02 -8.26448805E-03 -1.44827942E-17
 -2.54030052E-02  1.04736240E-02  3.37121767E-03  5.90776482E-18  1.39567828E+00
  1.99141201E-02  1.03430154E-01  3.95066845E-02  7.37027465E-02  1.11483241E-16
  1.54706680E-01  9.95411166E-02  1.85701579E-01  2.80893384E-16 -2.20088993E-03
 -4.98864315E-03  1.78583329E-02  5.74818491E-03  1.00731925E-17  1.63121279E-02
  9.41533743E-02  3.03057967E-02  5.31082644E-17  2.59735083E-01  2.41916700E-01
 -1.29288334E-03 -1.95862286E-02  2.56764418E-02  8.26475215E-03  1.44832285E-17
 -2.54029196E-02 -1.04752707E-02 -3.37178790E-03 -5.90875246E-18 -2.35661912E-02
  2.57587051E-03 -8.85096715E-02 -1.65125615E-01 -2.49769850E-16  1.29455590E-01
 -1.94085792E-01 -3.62090778E-01 -5.47700360E-16 -9.62827738E-04 -1.15770587E-02
  1.39567828E+00 -2.20083625E-03 -4.98826378E-03 -1.78588200E-02 -5.74841025E-03
 -1.00735675E-17  1.63128979E-02 -9.41546181E-02 -3.03065584E-02 -5.31094945E-17
  1.99141786E-02  1.03430409E-01 -3.95059576E-02 -7.37031948E-02 -1.11483829E-16
  1.54706944E-01 -9.95392283E-02 -1.85702602E-01 -2.80894705E-16 -1.15770587E-02
 -1.09746880E-02  2.59735083E-01  2.41916700E-01
Nuclear Attraction Matrix                  R   N=         253
 -6.55204638E+01 -5.86777850E+00 -1.45703302E+01  8.73271988E-02  5.95959267E-01
 -1.58386149E+01 -3.86378434E-02 -2.63347830E-01  2.56825574E-02 -1.56319646E+01
 -4.83657627E-17 -3.29581005E-16  1.10974933E-17 -1.10323110E-16 -1.55548973E+01
 -5.99408876E+00 -1.01132091E+01  5.80646265E-01 -2.53196716E-01 -3.16162380E-16
 -1.06137248E+01  1.20335304E-02  3.96086283E-01 -5.96750720E+00  2.91625185E-02
  1.57479079E-17  1.09231383E+00 -8.96564176E+00 -5.32422508E-03 -1.72270959E-01
  2.91625185E-02 -5.75235085E+00 -1.04446891E-16 -4.17941722E-01  1.57111761E-01
 -8.04269624E+00 -6.66471480E-18 -2.15016264E-16  1.57479079E-17 -1.04446891E-16
 -5.67907932E+00 -5.09389425E-16  1.24600099E-16 -2.84778049E-16 -7.83796975E+00
 -2.85067421E-08 -5.02104092E-02  1.44737833E-01 -3.51368421E-02 -3.78897671E-17
 -1.16700239E+00  2.87364567E+00 -6.97621277E-01 -7.52282584E-16 -6.55204632E+01
 -5.02104093E-02 -7.08348891E-01  1.18945856E+00 -2.89094426E-01 -3.11874899E-16
 -2.76578831E+00  5.48810258E+00 -1.32072366E+00 -1.41975133E-15 -5.86777837E+00
 -1.45703296E+01 -1.44737834E-01 -1.18945854E+00  1.79071557E+00 -5.10368538E-01
 -5.51127339E-16 -2.16365768E+00  2.75915596E+00 -1.03337491E+00 -1.11583930E-15
 -8.73273167E-02 -5.95960072E-01 -1.58386136E+01  3.51368426E-02  2.89094487E-01
 -5.10368648E-01 -1.80267373E-01  1.32410839E-16  5.44370269E-01 -1.08051680E+00
 -1.23273648E+00  2.63043591E-16  3.86380265E-02  2.63349073E-01  2.56829610E-02
 -1.56319648E+01  3.78897678E-17  3.11874990E-16 -5.51127500E-16  1.32410849E-16
 -3.03348770E-01  5.94366564E-16 -1.18478922E-15  2.67441111E-16 -1.48149622E+00
  4.83660195E-17  3.29582747E-16  1.10981509E-17 -1.10324315E-16 -1.55548967E+01
 -1.16700240E+00 -2.76578828E+00  2.16365768E+00 -5.44369859E-01 -5.94365965E-16
 -4.83124614E+00  6.06717266E+00 -1.47385151E+00 -1.58969959E-15 -5.99408867E+00
 -1.01132087E+01 -5.80647038E-01  2.53197874E-01  3.16164001E-16 -1.06137241E+01
 -2.87364571E+00 -5.48810250E+00  2.75915581E+00 -1.08051596E+00 -1.18478800E-15
 -6.06717239E+00  2.92741903E+00 -1.65768829E+00 -1.81635074E-15 -1.20335466E-02
 -3.96086809E-01 -5.96750617E+00  2.91629275E-02  1.57485712E-17 -1.09231495E+00
 -8.96563901E+00  6.97621291E-01  1.32072394E+00 -1.03337510E+00 -1.23273647E+00
  2.67441133E-16  1.47385260E+00 -1.65768975E+00 -3.23763315E+00  3.64332214E-16
  5.32425031E-03  1.72271741E-01  2.91629275E-02 -5.75235126E+00 -1.04447937E-16
  4.17943305E-01  1.57113139E-01 -8.04269691E+00  7.52282601E-16  1.41975174E-15
 -1.11583959E-15  2.63043709E-16 -1.48149623E+00  1.58970121E-15 -1.81635287E-15
  3.64332350E-16 -3.59245634E+00  6.66475019E-18  2.15017360E-16  1.57485712E-17
 -1.04447937E-16 -5.67907900E+00  5.09391635E-16  1.24602308E-16 -2.84779913E-16
 -7.83796905E+00 -1.04999539E+00 -2.74259194E+00 -1.32028856E+00 -2.67283958E+00
 -4.03246664E-15 -3.84189979E+00 -2.11265201E+00 -4.24829211E+00 -6.41064403E-15
 -5.82400604E-03 -9.21048457E-02 -1.60488738E-01 -4.21493371E-02 -7.66186160E-17
 -7.66216226E-01 -1.85384801E+00 -4.71895206E-01 -8.63127807E-16 -8.42714928E+00
 -2.35525661E+00 -4.66664813E+00 -4.97997155E-01 -1.55170489E+00 -2.31598472E-15
 -6.20467620E+00 -9.76481347E-01 -3.32694048E+00 -4.95708617E-15 -6.06280362E-01
 -1.45944306E+00 -1.00971481E+00 -2.31904995E-01 -4.33374114E-16 -2.81018736E+00
 -3.54329203E+00 -6.77917455E-01 -1.32205265E-15 -5.16214829E+00 -6.84273669E+00
 -5.82437365E-03 -9.21085766E-02  1.60494465E-01  4.21514562E-02  7.66222497E-17
 -7.66231633E-01  1.85387600E+00  4.71908848E-01  8.63150371E-16 -1.05000127E+00
 -2.74260476E+00  1.32026580E+00  2.67286423E+00  4.03250057E-15 -3.84191263E+00
  2.11261137E+00  4.24832340E+00  6.41068601E-15 -3.02651910E-03 -2.59816142E-01
 -8.42716464E+00 -6.06290407E-01 -1.45946408E+00  1.00972441E+00  2.31910485E-01
  4.33383039E-16 -2.81021658E+00  3.54331066E+00  6.77931571E-01  1.32207503E-15
 -2.35526000E+00 -4.66665526E+00  4.97981190E-01  1.55171392E+00  2.31599643E-15
 -6.20468663E+00  9.76444704E-01  3.32695986E+00  4.95711110E-15 -2.59816044E-01
 -1.28407833E+00 -5.16215805E+00 -6.84274879E+00
Core Hamiltonian Matrix                    R   N=         253
 -3.59803240E+01 -8.05318123E+00 -1.28591192E+01  8.73271988E-02  5.95959267E-01
 -1.15867378E+01 -3.86378434E-02 -2.63347830E-01  2.56825574E-02 -1.13800875E+01
 -4.83657627E-17 -3.29581005E-16  1.10974933E-17 -1.10323110E-16 -1.13030203E+01
 -5.86280626E+00 -9.63316131E+00  5.80646265E-01 -2.53196716E-01 -3.16162380E-16
 -1.02087161E+01  1.20335304E-02  3.96086283E-01 -5.42026397E+00  2.91625185E-02
  1.57479079E-17  1.09231383E+00 -8.29062726E+00 -5.32422508E-03 -1.72270959E-01
  2.91625185E-02 -5.20510762E+00 -1.04446891E-16 -4.17941722E-01  1.57111761E-01
 -7.36768174E+00 -6.66471480E-18 -2.15016264E-16  1.57479079E-17 -1.04446891E-16
 -5.13183610E+00 -5.09389425E-16  1.24600099E-16 -2.84778049E-16 -7.16295525E+00
 -2.27388413E-07 -6.25815564E-02  1.70709346E-01 -4.14459041E-02 -4.46947367E-17
 -1.16904822E+00  2.83642507E+00 -6.88579560E-01 -7.42530166E-16 -3.59803234E+01
 -6.25815566E-02 -7.88453315E-01  1.25158100E+00 -3.04185357E-01 -3.28152014E-16
 -2.74808135E+00  5.28162978E+00 -1.27056680E+00 -1.36565201E-15 -8.05318110E+00
 -1.28591187E+01 -1.70709347E-01 -1.25158098E+00  1.76684500E+00 -5.10378284E-01
 -5.51137851E-16 -2.08166366E+00  2.51460039E+00 -9.58106181E-01 -1.03465426E-15
 -8.73273167E-02 -5.95960072E-01 -1.15867365E+01  4.14459046E-02  3.04185418E-01
 -5.10378394E-01 -2.04175692E-01  1.32413392E-16  5.24452086E-01 -1.00524806E+00
 -1.18572969E+00  2.43321928E-16  3.86380265E-02  2.63349073E-01  2.56829610E-02
 -1.13800878E+01  4.46947374E-17  3.28152105E-16 -5.51138012E-16  1.32413403E-16
 -3.27259457E-01  5.72882764E-16 -1.10360418E-15  2.47719448E-16 -1.41620497E+00
  4.83660195E-17  3.29582747E-16  1.10981509E-17 -1.10324315E-16 -1.13030197E+01
 -1.16904824E+00 -2.74808132E+00  2.08166366E+00 -5.24451676E-01 -5.72882164E-16
 -4.75335674E+00  5.82225101E+00 -1.41435455E+00 -1.52552603E-15 -5.86280617E+00
 -9.63316087E+00 -5.80647038E-01  2.53197874E-01  3.16164001E-16 -1.02087154E+01
 -2.83642510E+00 -5.28162969E+00  2.51460024E+00 -1.00524722E+00 -1.10360297E-15
 -5.82225073E+00  2.63013168E+00 -1.53809353E+00 -1.68735555E-15 -1.20335466E-02
 -3.96086809E-01 -5.42026295E+00  2.91629275E-02  1.57485712E-17 -1.09231495E+00
 -8.29062451E+00  6.88579573E-01  1.27056707E+00 -9.58106371E-01 -1.18572968E+00
  2.47719470E-16  1.41435565E+00 -1.53809499E+00 -3.07165603E+00  3.32996393E-16
  5.32425031E-03  1.72271741E-01  2.91629275E-02 -5.20510804E+00 -1.04447937E-16
  4.17943305E-01  1.57113139E-01 -7.36768241E+00  7.42530182E-16  1.36565242E-15
 -1.03465455E-15  2.43322046E-16 -1.41620498E+00  1.52552765E-15 -1.68735768E-15
  3.32996529E-16 -3.39742697E+00  6.66475019E-18  2.15017360E-16  1.57485712E-17
 -1.04447937E-16 -5.13183577E+00  5.09391635E-16  1.24602308E-16 -2.84779913E-16
 -7.16295455E+00 -1.07356162E+00 -2.74001672E+00 -1.23177787E+00 -2.50771610E+00
 -3.78269982E-15 -3.71244472E+00 -1.91856282E+00 -3.88620385E+00 -5.86294704E-15
 -7.11682401E-03 -1.11690524E-01 -1.86164665E-01 -5.04138252E-02 -9.11014102E-17
 -7.91619232E-01 -1.84337438E+00 -4.68523988E-01 -8.57220042E-16 -7.03147100E+00
 -2.33534249E+00 -4.56321797E+00 -4.58490470E-01 -1.47800214E+00 -2.20450148E-15
 -6.04996952E+00 -8.76940231E-01 -3.14123890E+00 -4.67619278E-15 -6.08481252E-01
 -1.46443170E+00 -9.91856472E-01 -2.26156810E-01 -4.23300921E-16 -2.79387523E+00
 -3.44913866E+00 -6.47611659E-01 -1.26894438E-15 -4.90241321E+00 -6.60081999E+00
 -7.11725700E-03 -1.11694805E-01  1.86170907E-01  5.04162084E-02  9.11054781E-17
 -7.91634552E-01  1.84340073E+00  4.68537060E-01  8.57241618E-16 -1.07356746E+00
 -2.74002889E+00  1.23175612E+00  2.50773861E+00  3.78273072E-15 -3.71245704E+00
  1.91852557E+00  3.88623263E+00  5.86298565E-15 -3.98934684E-03 -2.71393201E-01
 -7.03148636E+00 -6.08491243E-01 -1.46445234E+00  9.91865595E-01  2.26162074E-01
  4.23309471E-16 -2.79390368E+00  3.44915604E+00  6.47625013E-01  1.26896554E-15
 -2.33534582E+00 -4.56322485E+00  4.58475233E-01  1.47801072E+00  2.20451260E-15
 -6.04997969E+00  8.76905476E-01  3.14125726E+00  4.67621640E-15 -2.71393103E-01
 -1.29505302E+00 -4.90242296E+00 -6.60083209E+00
Multipole Matrix (1,0,0)                   R   N=         253
  1.20839878E+00  2.82390598E-01  1.20839878E+00  7.27077806E-02  4.96075284E-01
  1.20839878E+00  0.00000000E+00  0.00000000E+00  0.00000000E+00  1.20839878E+00
  0.00000000E+00  0.00000000E+00  0.00000000E+00  0.00000000E+00  1.20839878E+00
  2.02140658E-01  9.22782581E-01  4.82583279E-01  0.00000000E+00  0.00000000E+00
  1.20839878E+00  1.00190010E-02  3.29089724E-01  6.06036932E-01  0.00000000E+00
  0.00000000E+00  9.62240114E-01  1.20839878E+00  0.00000000E+00  0.00000000E+00
  0.00000000E+00  6.06036932E-01  0.00000000E+00  0.00000000E+00  0.00000000E+00
  1.20839878E+00  0.00000000E+00  0.00000000E+00  0.00000000E+00  0.00000000E+00
  6.06036932E-01  0.00000000E+00  0.00000000E+00  0.00000000E+00  1.20839878E+00
 -2.08020304E-15 -1.57880614E-03  4.51624329E-03 -1.06588373E-03 -1.14966477E-18
 -3.75625482E-02  9.34304882E-02 -2.22074065E-02 -2.39529624E-17 -1.20840078E+00
  1.57880273E-03 -5.33447938E-08  1.35487860E-02  1.20971116E-03  1.30479738E-18
 -1.40650502E-01  3.61631770E-01 -6.63619376E-02 -7.15781466E-17 -2.82391064E-01
 -1.20840078E+00  4.51623387E-03  1.35486088E-02  1.32376838E-07  7.44212774E-03
  8.02709701E-18  4.87661592E-03 -4.24397535E-02  1.92948727E-03  2.08114965E-18
  7.27077806E-02  4.96075284E-01 -1.20840078E+00 -1.06588144E-03  1.20975420E-03
 -7.44220434E-03 -1.59855676E-08  1.00354289E-23  2.93016330E-02 -7.46410156E-02
 -8.15502879E-02  1.56393599E-17  0.00000000E+00  0.00000000E+00  0.00000000E+00
 -1.20840078E+00 -1.14966231E-18  1.30484381E-18 -8.02717963E-18  1.00354289E-23
 -2.52896714E-08  3.16048124E-17 -8.05079802E-17  1.56393599E-17 -9.60499400E-02
  0.00000000E+00  0.00000000E+00  0.00000000E+00  0.00000000E+00 -1.20840078E+00
  3.75624820E-02  1.40650086E-01  4.87694268E-03  2.93015536E-02  3.16047267E-17
 -4.32766856E-07  4.17461087E-01 -1.32022733E-07 -1.42400040E-22 -2.02140992E-01
 -9.22784105E-01  4.82583279E-01  0.00000000E+00  0.00000000E+00 -1.20840078E+00
  9.34303272E-02  3.61630957E-01  4.24401538E-02  7.46408551E-02  8.05078071E-17
  4.17460000E-01  2.49742097E-07  1.27353122E-01  1.37363386E-16  1.00190010E-02
  3.29089724E-01 -6.06037933E-01  0.00000000E+00  0.00000000E+00  9.62240114E-01
 -1.20840078E+00 -2.22073674E-02 -6.63617400E-02 -1.92964771E-03  8.15500666E-02
 -1.56393179E-17  1.32022733E-07 -1.27353454E-01 -3.92491124E-07  4.34415025E-23
  0.00000000E+00  0.00000000E+00  0.00000000E+00 -6.06037933E-01  0.00000000E+00
  0.00000000E+00  0.00000000E+00 -1.20840078E+00 -2.39529202E-17 -7.15779335E-17
 -2.08132269E-18 -1.56393179E-17  9.60496798E-02  1.42400040E-22 -1.37363744E-16
  4.34415025E-23 -4.32766856E-07  0.00000000E+00  0.00000000E+00  0.00000000E+00
  0.00000000E+00 -6.06037933E-01  0.00000000E+00  0.00000000E+00  0.00000000E+00
 -1.20840078E+00  3.88246571E-02  3.59767354E-01  3.00125377E-01  3.69619957E-01
  5.59089488E-16  7.56428015E-01  7.21665026E-01  9.43973466E-01  1.42786024E-15
 -1.85861877E-04  6.70882061E-04  3.88474353E-03  2.17885212E-04  3.81824824E-19
  9.02067306E-02  2.66833640E-01  7.23020893E-02  1.26703103E-16  2.09264245E+00
  8.15367075E-02  4.92610431E-01  3.37501981E-01  1.72268725E-01  2.60574764E-16
  1.02861808E+00  1.15870547E+00  6.59428009E-01  9.97454983E-16 -1.97906464E-02
 -8.34037914E-02  1.20681323E-02 -1.98992199E-02 -3.48716466E-17  7.35475521E-03
  3.50001559E-01  3.03694859E-03  5.32198742E-18  1.37756989E+00  2.09264245E+00
  1.85873207E-04 -6.70872801E-04  3.88483274E-03  2.17873808E-04  3.81804086E-19
 -9.02077212E-02  2.66835770E-01  7.23033672E-02  1.26705093E-16 -3.88248883E-02
 -3.59767409E-01  3.00121899E-01  3.69621794E-01  5.59091815E-16 -7.56424844E-01
  7.21652990E-01  9.43973427E-01  1.42785903E-15  1.84872129E-09 -3.27559965E-02
 -2.09262649E+00  1.97909433E-02  8.34050503E-02  1.20686176E-02 -1.98996485E-02
 -3.48723290E-17 -7.35349834E-03  3.50003468E-01  3.03644928E-03  5.32110194E-18
 -8.15369339E-02 -4.92610821E-01  3.37500515E-01  1.72269626E-01  2.60575916E-16
 -1.02861586E+00  1.15869826E+00  6.59429341E-01  9.97456191E-16  3.27564015E-02
  1.07388736E-06 -1.37755938E+00 -2.09262649E+00
Multipole Matrix (0,1,0)                   R   N=         253
 -2.93546981E-01 -6.85989664E-02 -2.93546981E-01  0.00000000E+00  0.00000000E+00
 -2.93546981E-01  7.27077806E-02  4.96075284E-01  0.00000000E+00 -2.93546981E-01
  0.00000000E+00  0.00000000E+00  0.00000000E+00  0.00000000E+00 -2.93546981E-01
 -4.91044684E-02 -2.24164444E-01  0.00000000E+00  4.82583279E-01  0.00000000E+00
 -2.93546981E-01  0.00000000E+00  0.00000000E+00 -1.47219870E-01  0.00000000E+00
  0.00000000E+00  0.00000000E+00 -2.93546981E-01  1.00190010E-02  3.29089724E-01
  0.00000000E+00 -1.47219870E-01  0.00000000E+00  9.62240114E-01  0.00000000E+00
 -2.93546981E-01  0.00000000E+00  0.00000000E+00  0.00000000E+00  0.00000000E+00
 -1.47219870E-01  0.00000000E+00  0.00000000E+00  0.00000000E+00 -2.93546981E-01
  7.98129548E-16  3.83527601E-04 -1.06588439E-03  3.87416320E-04  2.79279489E-19