
Running Job 1 of 1 input
qchem input_19143.0 /aimm/scratch/qchem19143/ 1
/home/epif/aimm/qcprog.exe_s input_19143.0 /aimm/scratch/qchem19143/
8388608
                  Welcome to Q-Chem
     A Quantum Leap Into The Future Of Chemistry


 Q-Chem 6.1, Q-Chem, Inc., Pleasanton, CA (2023)

 E. Epifanovsky,  A. T. B. Gilbert,  Xintian Feng,  Joonho Lee,  Yuezhi Mao,  
 N. Mardirossian,  P. Pokhilko,  A. White,  M. Wormit,  M. P. Coons,  
 A. L. Dempwolff,  Zhengting Gan,  D. Hait,  P. R. Horn,  L. D. Jacobson,  
 I. Kaliman,  J. Kussmann,  A. W. Lange,  Ka Un Lao,  D. S. Levine,  Jie Liu,  
 S. C. McKenzie,  A. F. Morrison,  K. D. Nanda,  F. Plasser,  D. R. Rehn,  
 M. L. Vidal,  Zhi-Qiang You,  Ying Zhu,  B. Alam,  B. Albrecht,  
 A. Aldossary,  E. Alguire,  J. H. Andersen,  V. Athavale,  D. Barton,  
 K. Begam,  A. Behn,  N. Bellonzi,  Y. A. Bernard,  E. J. Berquist,  
 H. Burton,  A. Carreras,  K. Carter-Fenk,  Mathew Chow,  Romit Chakraborty,  
 Chandrima Chakravarty,  Junhan Chen,  A. D. Chien,  K. D. Closser,  
 V. Cofer-Shabica,  L. Cunha,  S. Dasgupta,  Jia Deng,  M. de Wergifosse,  
 M. Diedenhofen,  Hainam Do,  S. Ehlert,  Po-Tung Fang,  S. Fatehi,  
 Qingguo Feng,  T. Friedhoff,  Thomas Froitzheim,  B. Ganoe,  J. Gayvert,  
 Qinghui Ge,  G. Gidofalvi,  M. Gimferrer,  M. Goldey,  Montgomery Gray,  
 J. Gomes,  C. Gonzalez-Espinoza,  S. Gulania,  A. Gunina,  J. A. Gyamfi,  
 M. W. D. Hanson-Heine,  P. H. P. Harbach,  A. W. Hauser,  M. F. Herbst,  
 M. Hernandez Vera,  M. Hodecker,  Z. C. Holden,  S. Houck,  Xunkun Huang,  
 Kerwin Hui,  B. C. Huynh,  K. Ikeda,  M. Ivanov,  Hyunjun Ji,  Zuxin Jin,  
 Hanjie Jiang,  Subrata Jana,  B. Kaduk,  S. Kaehler,  R. Kang,  
 K. Khistyaev,  Jaehoon Kim,  Yongbin Kim,  P. Klunzinger,  Z. Koczor-Benda,  
 Joong Hoon Koh,  D. Kosenkov,  Saikiran Kotaru,  L. Koulias,  T. Kowalczyk,  
 C. M. Krauter,  K. Kue,  A. Kunitsa,  T. Kus,  A. Landau,  K. V. Lawler,  
 D. Lefrancois,  S. Lehtola,  Rain Li,  Shaozhi Li,  Yi-Pei Li,  
 Jiashu Liang,  M. Liebenthal,  Hung-Hsuan Lin,  You-Sheng Lin,  Fenglai Liu,  
 Kuan-Yu Liu,  Xiao Liu,  M. Loipersberger,  A. Luenser,  C. Malbon,  
 A. Manjanath,  P. Manohar,  E. Mansoor,  S. F. Manzer,  Shan-Ping Mao,  
 A. V. Marenich,  T. Markovich,  S. Mason,  F. Matz,  S. A. Maurer,  
 P. F. McLaughlin,  M. F. S. J. Menger,  J.-M. Mewes,  S. A. Mewes,  
 P. Morgante,  Mohammad Mostafanejad,  J. W. Mullinax,  K. J. Oosterbaan,  
 G. Paran,  V. Parravicini,  Alexander C. Paul,  Suranjan K. Paul,  
 F. Pavosevic,  Zheng Pei,  S. Prager,  E. I. Proynov,  E. Ramos,  B. Rana,  
 A. E. Rask,  A. Rettig,  R. M. Richard,  F. Rob,  E. Rossomme,  T. Scheele,  
 M. Scheurer,  M. Schneider,  P. E. Schneider,  Tim K. Schramm,  N. Sergueev,  
 S. M. Sharada,  M. Sharma,  Hengyuan Shen,  W. Skomorowski,  D. W. Small,  
 C. J. Stein,  Alistair J. Sterling,  Yingli Su,  Yu-Chuan Su,  
 E. J. Sundstrom,  J. Talbot,  Zhen Tao,  J. Thirman,  Hung-Yi Tsai,  
 T. Tsuchimochi,  N. M. Tubman,  C. Utku,  S. P. Veccham,  O. Vydrov,  
 J. Wenzel,  Jonathan Wong,  J. Witte,  A. Yamada,  Chou-Hsun Yang,  Kun Yao,  
 S. Yeganeh,  S. R. Yost,  A. Zech,  F. Zeller,  Igor Ying Zhang,  
 Xing Zhang,  Yu Zhang,  D. Zuev,  A. Aspuru-Guzik,  A. T. Bell,  
 N. A. Besley,  K. B. Bravaya,  B. R. Brooks,  D. Casanova,  Jeng-Da Chai,  
 Hsing-Ta Chen,  S. Coriani,  C. J. Cramer,  A. E. DePrince, III,  
 R. A. DiStasio Jr.,  A. Dreuw,  B. D. Dunietz,  T. R. Furlani,  
 W. A. Goddard III,  S. Grimme,  S. Hammes-Schiffer,  T. Head-Gordon,  
 W. J. Hehre,  Chao-Ping Hsu,  T.-C. Jagau,  Yousung Jung,  A. Klamt,  
 Jing Kong,  D. S. Lambrecht,  Xiangyuan Li,  WanZhen Liang,  N. J. Mayhall,  
 C. W. McCurdy,  J. B. Neaton,  T. Neudecker,  C. Ochsenfeld,  
 J. A. Parkhill,  R. Peverati,  V. A. Rassolov,  Haisheng Ren,  Yihan Shao,  
 L. V. Slipchenko,  R. P. Steele,  J. E. Subotnik,  A. J. W. Thom,  
 A. Tkatchenko,  D. G. Truhlar,  T. Van Voorhis,  Fan Wang,  
 T. A. Wesolowski,  K. B. Whaley,  H. L. Woodcock III,  P. M. Zimmerman,  
 S. Faraji,  P. M. W. Gill,  M. Head-Gordon,  J. M. Herbert,  A. I. Krylov

 Contributors to earlier versions of Q-Chem not listed above: 
 R. D. Adamson,  B. Austin,  R. Baer,  J. Baker,  G. J. O. Beran,  
 K. Brandhorst,  S. T. Brown,  E. F. C. Byrd,  Arup K. Chakraborty,  
 G. K. L. Chan,  Chun-Min Chang,  Yunqing Chen,  C.-L. Cheng,  
 Siu Hung Chien,  D. M. Chipman,  D. L. Crittenden,  H. Dachsel,  
 R. J. Doerksen,  A. D. Dutoi,  R. G. Edgar,  J. Fosso-Tande,  
 L. Fusti-Molnar,  D. Ghosh,  A. Ghysels,  A. Golubeva-Zadorozhnaya,  
 J. Gonthier,  M. S. Gordon,  S. R. Gwaltney,  G. Hawkins,  J. E. Herr,  
 A. Heyden,  S. Hirata,  E. G. Hohenstein,  G. Kedziora,  F. J. Keil,  
 C. Kelley,  Jihan Kim,  R. A. King,  R. Z. Khaliullin,  P. P. Korambath,  
 W. Kurlancheek,  A. Laurent,  A. M. Lee,  M. S. Lee,  S. V. Levchenko,  
 Ching Yeh Lin,  D. Liotard,  E. Livshits,  R. C. Lochan,  I. Lotan,  
 L. A. Martinez-Martinez,  P. E. Maslen,  N. Nair,  D. P. O'Neill,  
 D. Neuhauser,  E. Neuscamman,  C. M. Oana,  R. Olivares-Amaya,  R. Olson,  
 T. M. Perrine,  B. Peters,  P. A. Pieniazek,  A. Prociuk,  Y. M. Rhee,  
 J. Ritchie,  M. A. Rohrdanz,  E. Rosta,  N. J. Russ,  H. F. Schaefer III,  
 M. W. Schmidt,  N. E. Schultz,  S. Sharma,  N. Shenvi,  C. D. Sherrill,  
 A. C. Simmonett,  A. Sodt,  T. Stein,  D. Stuck,  K. S. Thanthiriwatte,  
 V. Vanovschi,  L. Vogt,  Tao Wang,  A. Warshel,  M. A. Watson,  
 C. F. Williams,  Q. Wu,  X. Xu,  Jun Yang,  W. Zhang,  Yan Zhao

   Please cite Q-Chem as follows:
  "Software for the frontiers of quantum chemistry:
   An overview of developments in the Q-Chem 5 package"
   J. Chem. Phys. 155, 084801 (2021)
   https://doi.org/10.1063/5.0055522 (open access)

 Q-Chem 6.1.1 for Intel X86 EM64T Linux

 Parts of Q-Chem use Armadillo 9.900.5 (Nocturnal Misbehaviour).
 http://arma.sourceforge.net/

 Q-Chem begins on Wed Apr 24 15:09:12 2024  

 Host: iqmol
0

     Scratch files written to /aimm/scratch/qchem19143//
 Jan1824 |scratch|qcdevops|jenkins|workspace|build_RNUM 6466   
 Processing $rem in /opt/qchem/qc611/config/preferences:
 Processing $rem in /home/epif/.qchemrc:

 Checking the input file for inconsistencies... 	...done.

--------------------------------------------------------------
User input:
--------------------------------------------------------------
$molecule
0 1
O   -0.6381366    2.8321475   -0.9541590
O    0.5310458    2.4071658   -0.5219722
H    0.3422338    2.0036088    0.3636655
H   -0.9354093    2.1417287   -1.6005435
$end

$rem
BASIS  =  6-31G
GUI  =  2
JOB_TYPE  =  Optimization
METHOD  =  wB97XV
SCF_CONVERGENCE  =  8
$end

--------------------------------------------------------------
 Atom   2: (  0.6487265721, -0.1129133502, -0.0678210649)
         ->(  0.6487265837, -0.1129132835, -0.0678211424)
 Atom   4: ( -1.0249421728, -0.5717382624,  0.5425690530)
         ->( -1.0249422653, -0.5717387965,  0.5425686053)
 ----------------------------------------------------------------
             Standard Nuclear Orientation (Angstroms)
    I     Atom           X                Y                Z
 ----------------------------------------------------------------
    1      O      -0.6487265837     0.1129132835    -0.0678211424
    2      O       0.6487265837    -0.1129132835    -0.0678211424
    3      H       1.0249422653     0.5717387965     0.5425686053
    4      H      -1.0249422653    -0.5717387965     0.5425686053
 ----------------------------------------------------------------
 Molecular Point Group                 C2    NOp =  2
 Largest Abelian Subgroup              C2    NOp =  2
 Nuclear Repulsion Energy =          39.08453988 hartrees
 There are        9 alpha and        9 beta electrons
 Requested basis set is 6-31G
 There are 10 shells and 22 basis functions

 Total QAlloc Memory Limit   8000 MB
 Mega-Array Size       188 MB
 MEM_STATIC part       192 MB

 -----------------------------------------------------------------------
                STARTING GEOMETRY OPTIMIZER USING LIBOPT3
                by Peter F. McLaughlin, Yu Zhang, Evgeny Epifanovsky
 -----------------------------------------------------------------------

              Initial Energy and Gradient Calculation
   -- Checking Topology for Ill-Behaving Coordinates --

 -------------------------------------------
   Coordinate       |  Removed | Additions 
 -------------------------------------------
	Bonds                     0          0
	Angles                    0          0
	Torsions                  0          0
	Co-Linear Type5s          0          0
	Co-Linear Type6s          0          0
 -------------------------------------------
     Done Checking Topology
 ----------------------------------------------------------------
             Standard Nuclear Orientation (Angstroms)
    I     Atom           X                Y                Z
 ----------------------------------------------------------------
    1      O      -0.6487265704     0.1129133596    -0.0678210831
    2      O       0.6487265704    -0.1129133596    -0.0678210831
    3      H       1.0249423324     0.5717386762     0.5425686646
    4      H      -1.0249423324    -0.5717386762     0.5425686646
 ----------------------------------------------------------------
 Molecular Point Group                 C2    NOp =  2
 Largest Abelian Subgroup              C2    NOp =  2
 Nuclear Repulsion Energy =          39.08453916 hartrees
 There are        9 alpha and        9 beta electrons

                       Distance Matrix (Angstroms)
             O (  1)   O (  2)   H (  3)
   O (  2)  1.316960
   H (  3)  1.839637  0.991394
   H (  4)  0.991394  1.839637  2.347247
 
 Requested basis set is 6-31G
 There are 10 shells and 22 basis functions
 A cutoff of  1.0D-12 yielded     55 shell pairs
 There are       277 function pairs
 Smallest overlap matrix eigenvalue = 2.81E-02

 Scale SEOQF with 1.000000e+00/1.000000e+00/1.000000e+00

 Standard Electronic Orientation quadrupole field applied
 Nucleus-field energy     =     0.0000000031 hartrees
 Guess from superposition of atomic densities
 Warning:  Energy on first SCF cycle will be non-variational
 SAD guess density has 18.000000 electrons

 -----------------------------------------------------------------------
  General SCF calculation program by
  Eric Jon Sundstrom, Paul Horn, Yuezhi Mao, Dmitri Zuev, Alec White,
  David Stuck, Shaama M.S., Shane Yost, Joonho Lee, David Small,
  Daniel Levine, Susi Lehtola, Hugh Burton, Evgeny Epifanovsky,
  Bang C. Huynh
 -----------------------------------------------------------------------
 Exchange:     0.1670 Hartree-Fock + 1.0000 wB97X-V + LR-HF
 Correlation:  1.0000 wB97X-V
 Using SG-2 standard quadrature grid
 Nonlocal Correlation:  VV10 with C = 0.0100 and b = 6.00 and scale = 1.00000
 Grid used for NLC:  SG-1 standard quadrature
 A restricted SCF calculation will be
 performed using DIIS
 SCF converges when DIIS error is below 1.0e-08
 ---------------------------------------
  Cycle       Energy         DIIS error
 ---------------------------------------
    1    -151.6481085424      1.92e-01  
    2    -151.3758779676      2.14e-02  
    3    -151.4001846560      1.27e-02  
    4    -151.4070417150      2.21e-03  
    5    -151.4073032246      1.89e-04  
    6    -151.4073073192      3.65e-05  
    7    -151.4073076259      5.64e-06  
    8    -151.4073076358      6.08e-07  
    9    -151.4073076359      1.09e-07  
   10    -151.4073076359      1.49e-08  
   11    -151.4073076359      1.80e-09  Convergence criterion met
 ---------------------------------------
 SCF time:   CPU 7.83s  wall 8.00s 
 SCF   energy =  -151.40730764
 Total energy =  -151.40730764
 
 --------------------------------------------------------------
             Orbital Energies (a.u.) and Symmetries
 --------------------------------------------------------------
 
 Alpha MOs, Restricted
 -- Occupied --                  
-19.280 -19.280  -1.332  -1.005  -0.687  -0.603  -0.541  -0.394
  1 B     1 A     2 A     2 B     3 A     3 B     4 A     5 A                  
 -0.376
  4 B                                                                          
 -- Virtual --                   
  0.156   0.160   0.274   0.897   0.908   0.975   0.995   1.099
  6 A     5 B     6 B     7 A     7 B     8 B     8 A     9 B                  
  1.123   1.158   1.185   1.508   1.738
  9 A    10 A    10 B    11 A    11 B                                          
 
 Beta MOs, Restricted
 -- Occupied --                  
-19.280 -19.280  -1.332  -1.005  -0.687  -0.603  -0.541  -0.394
  1 B     1 A     2 A     2 B     3 A     3 B     4 A     5 A                  
 -0.376
  4 B                                                                          
 -- Virtual --                   
  0.156   0.160   0.274   0.897   0.908   0.975   0.995   1.099
  6 A     5 B     6 B     7 A     7 B     8 B     8 A     9 B                  
  1.123   1.158   1.185   1.508   1.738
  9 A    10 A    10 B    11 A    11 B                                          
 --------------------------------------------------------------
 
          Ground-State Mulliken Net Atomic Charges

     Atom                 Charge (a.u.)
  ----------------------------------------
      1 O                    -0.385522
      2 O                    -0.385522
      3 H                     0.385522
      4 H                     0.385522
  ----------------------------------------
  Sum of atomic charges =     0.000000

 -----------------------------------------------------------------
                    Cartesian Multipole Moments
 -----------------------------------------------------------------
    Charge (ESU x 10^10)
                -0.0000
    Dipole Moment (Debye)
         X       0.0000      Y      -0.0000      Z       2.6227
       Tot       2.6227
    Quadrupole Moments (Debye-Ang)
        XX     -10.5227     XY       3.1087     YY     -11.0064
        XZ      -0.0000     YZ      -0.0000     ZZ     -11.1326
    Octopole Moments (Debye-Ang^2)
       XXX      -0.0000    XXY      -0.0000    XYY      -0.0000
       YYY      -0.0000    XXZ       3.0936    XYZ       1.2769
       YYZ       0.8726    XZZ      -0.0000    YZZ      -0.0000
       ZZZ       1.6338
    Hexadecapole Moments (Debye-Ang^3)
      XXXX     -36.6733   XXXY       3.6149   XXYY      -7.9734
      XYYY       2.0783   YYYY     -10.5130   XXXZ      -0.0000
      XXYZ      -0.0000   XYYZ      -0.0000   YYYZ      -0.0000
      XXZZ      -8.0780   XYZZ       1.0486   YYZZ      -3.1122
      XZZZ      -0.0000   YZZZ      -0.0000   ZZZZ      -9.9637
 -----------------------------------------------------------------
 Calculating analytic gradient of the SCF energy
 Gradient of SCF Energy
            1           2           3           4
    1   0.1378280  -0.1378280  -0.0038472   0.0038472
    2  -0.0111974   0.0111974   0.0059446  -0.0059446
    3  -0.0074786  -0.0074786   0.0074786   0.0074786
 Max gradient component =       1.378E-01
 RMS gradient           =       5.669E-02
 Gradient time:  CPU 0.96 s  wall 0.96 s

 *****************************************************
             Starting BFGS Algorithm
 *****************************************************
            LIBOPT3 RUN PARAMETERS

  Geometry Optimization Coordinates :
	Delocalized Natural Internal Coordinates

  Step Length Selection Method :
	Eigenvector Following Algorithm

  Step Length Limiter :
	Root-Mean-Square of Gradient

  Convergence Criteria :
	Max Gradient Component    	3.00000000e-04
	Max Displacement Component	1.20000000e-03
	Absolute Energy Difference	1.00000000e-06

  Initial Hessian :
	Approximate Hessian - Simple Internal Coordinate Scaled

  Type of Verification :
	Verify with final updated Hessian
 *****************************************************

	OPTIMIZATION CYCLE:	1

 Scaling Magnitude of Eigenvalues
 	Minimum: -25.00000000	 Maximum: 25.00000000
 6 Hessian Eigenvalues to form next step
   0.10000000   0.20000000   0.20000000   0.50000000   0.50000000
   0.50000000

 Minimum Search taking a RFO step
 Searching for Lambda that minimizes along all modes
	Value of Lambda   -0.03938694
	Norm  of Stepsize  0.27751300
	RMS   of Stepsize  0.11329421

	Performing Iterative Coordinate Back-Transformation

	  Starting from Previous Position

	  iter:	0	rms: 9.3526591352e-02	maxdev: 1.6492186008e-01
	  iter:	1	rms: 1.3621883761e-03	maxdev: 2.2022353398e-03
	  iter:	2	rms: 2.6753843191e-06	maxdev: 4.3787692752e-06
	  iter:	3	rms: 2.9225086032e-12	maxdev: 6.1898256002e-12	 Success!

	Finished Iterative Coordinate Back-Transformation
 ----------------------------------------------------------------
             Standard Nuclear Orientation (Angstroms)
    I     Atom           X                Y                Z
 ----------------------------------------------------------------
    1      O      -0.7227940052     0.0901180504    -0.0550766452
    2      O       0.7227940052    -0.0901180504    -0.0550766452
    3      H       1.1133592899     0.5984723743     0.5298241082
    4      H      -1.1133592899    -0.5984723743     0.5298241082
 ----------------------------------------------------------------
 Molecular Point Group                 C2    NOp =  2
 Largest Abelian Subgroup              C2    NOp =  2
 Nuclear Repulsion Energy =          36.30777424 hartrees
 There are        9 alpha and        9 beta electrons

                       Distance Matrix (Angstroms)
             O (  1)   O (  2)   H (  3)
   O (  2)  1.456781
   H (  3)  1.992986  0.984280
   H (  4)  0.984280  1.992986  2.528033
 
 Applying Cartesian multipole field
    Component          Value
    ---------          -----
     (2,0,0)        1.00000E-10
     (0,2,0)        2.00000E-10
     (0,0,2)       -3.00000E-10
 Nucleus-field energy     = 3.8212919346e-09 hartrees
 Requested basis set is 6-31G
 There are 10 shells and 22 basis functions
 A cutoff of  1.0D-12 yielded     55 shell pairs
 There are       277 function pairs
 Smallest overlap matrix eigenvalue = 4.25E-02
 Guess MOs from SCF MO coefficient file

 -----------------------------------------------------------------------
  General SCF calculation program by
  Eric Jon Sundstrom, Paul Horn, Yuezhi Mao, Dmitri Zuev, Alec White,
  David Stuck, Shaama M.S., Shane Yost, Joonho Lee, David Small,
  Daniel Levine, Susi Lehtola, Hugh Burton, Evgeny Epifanovsky,
  Bang C. Huynh
 -----------------------------------------------------------------------
 Exchange:     0.1670 Hartree-Fock + 1.0000 wB97X-V + LR-HF
 Correlation:  1.0000 wB97X-V
 Using SG-2 standard quadrature grid
 Nonlocal Correlation:  VV10 with C = 0.0100 and b = 6.00 and scale = 1.00000
 Grid used for NLC:  SG-1 standard quadrature
 A restricted SCF calculation will be
 performed using DIIS
 SCF converges when DIIS error is below 1.0e-08
 ---------------------------------------
  Cycle       Energy         DIIS error
 ---------------------------------------
    1    -151.4149322599      1.09e-02  
    2    -151.4239704579      2.20e-03  
    3    -151.4244606420      1.28e-03  
    4    -151.4245584300      2.39e-04  
    5    -151.4245763451      5.61e-05  
    6    -151.4245776312      1.17e-05  
    7    -151.4245776818      1.85e-06  
    8    -151.4245776831      2.87e-07  
    9    -151.4245776831      5.51e-08  
   10    -151.4245776831      5.18e-09  Convergence criterion met
 ---------------------------------------
 SCF time:   CPU 7.10s  wall 7.00s 
 SCF   energy =  -151.42457768
 Total energy =  -151.42457768
 
 --------------------------------------------------------------
             Orbital Energies (a.u.) and Symmetries
 --------------------------------------------------------------
 
 Alpha MOs, Restricted
 -- Occupied --                  
-19.288 -19.288  -1.252  -1.035  -0.660  -0.576  -0.514  -0.409
  1 B     1 A     2 A     2 B     3 A     3 B     4 A     5 A                  
 -0.393
  4 B                                                                          
 -- Virtual --                   
  0.102   0.161   0.218   0.896   0.899   0.967   0.988   1.105
  5 B     6 A     6 B     7 A     7 B     8 B     8 A     9 B                  
  1.149   1.184   1.201   1.473   1.698
  9 A    10 B    10 A    11 A    11 B                                          
 
 Beta MOs, Restricted
 -- Occupied --                  
-19.288 -19.288  -1.252  -1.035  -0.660  -0.576  -0.514  -0.409
  1 B     1 A     2 A     2 B     3 A     3 B     4 A     5 A                  
 -0.393
  4 B                                                                          
 -- Virtual --                   
  0.102   0.161   0.218   0.896   0.899   0.967   0.988   1.105
  5 B     6 A     6 B     7 A     7 B     8 B     8 A     9 B                  
  1.149   1.184   1.201   1.473   1.698
  9 A    10 B    10 A    11 A    11 B                                          
 --------------------------------------------------------------
 
          Ground-State Mulliken Net Atomic Charges

     Atom                 Charge (a.u.)
  ----------------------------------------
      1 O                    -0.391884
      2 O                    -0.391884
      3 H                     0.391884
      4 H                     0.391884
  ----------------------------------------
  Sum of atomic charges =     0.000000

 -----------------------------------------------------------------
                    Cartesian Multipole Moments
 -----------------------------------------------------------------
    Charge (ESU x 10^10)
                 0.0000
    Dipole Moment (Debye)
         X       0.0000      Y      -0.0000      Z       2.5759
       Tot       2.5759
    Quadrupole Moments (Debye-Ang)
        XX      -9.7219     XY       3.3989     YY     -10.9329
        XZ      -0.0000     YZ      -0.0000     ZZ     -11.3140
    Octopole Moments (Debye-Ang^2)
       XXX       0.0000    XXY      -0.0000    XYY      -0.0000
       YYY      -0.0000    XXZ       3.3414    XYZ       1.5222
       YYZ       0.8038    XZZ      -0.0000    YZZ      -0.0000
       ZZZ       1.2510
    Hexadecapole Moments (Debye-Ang^3)
      XXXX     -41.5981   XXXY       4.2488   XXYY      -8.7277
      XYYY       1.7999   YYYY     -10.3206   XXXZ      -0.0000
      XXYZ      -0.0000   XYYZ      -0.0000   YYYZ      -0.0000
      XXZZ      -9.0736   XYZZ       0.9632   YYZZ      -3.0774
      XZZZ      -0.0000   YZZZ      -0.0000   ZZZZ      -9.9409
 -----------------------------------------------------------------
 Calculating analytic gradient of the SCF energy
 Gradient of SCF Energy
            1           2           3           4
    1   0.0180300  -0.0180300   0.0119252  -0.0119252
    2  -0.0185383   0.0185383  -0.0041801   0.0041801
    3   0.0003416   0.0003416  -0.0003416  -0.0003416
 Max gradient component =       1.854E-02
 RMS gradient           =       1.175E-02
 Gradient time:  CPU 1.04 s  wall 1.04 s

     Step 1	:
        Energy is -151.4245776831
                            Maximum         Tolerance       Converged?
         Gradient           2.29557992e-02	3.00000000e-04	false
         Displacement       1.99164913e-01	1.20000000e-03	false
         Energy change      1.72700472e-02	1.00000000e-06	false


	OPTIMIZATION CYCLE:	2

 Scaling Magnitude of Eigenvalues
 	Minimum: -25.00000000	 Maximum: 25.00000000
 6 Hessian Eigenvalues to form next step
   0.09969282   0.20000000   0.20755966   0.49874766   0.50000000
   0.52898348

 Minimum Search taking a RFO step
 Searching for Lambda that minimizes along all modes
	Value of Lambda   -0.00533130
	Norm  of Stepsize  0.15926329
	RMS   of Stepsize  0.06501896

	Performing Iterative Coordinate Back-Transformation

	  Starting from Previous Position

	  iter:	0	rms: 5.0090458941e-02	maxdev: 1.0175599783e-01
	  iter:	1	rms: 2.2807453104e-03	maxdev: 3.3811238675e-03
	  iter:	2	rms: 3.9936266558e-06	maxdev: 6.0981814022e-06
	  iter:	3	rms: 2.0394088610e-11	maxdev: 3.2345438073e-11	 Success!

	Finished Iterative Coordinate Back-Transformation
 ----------------------------------------------------------------
             Standard Nuclear Orientation (Angstroms)
    I     Atom           X                Y                Z
 ----------------------------------------------------------------
    1      O      -0.7319091349     0.1239057241    -0.0572815631
    2      O       0.7319091349    -0.1239057241    -0.0572815632
    3      H       1.0582757543     0.5900600997     0.5320290261
    4      H      -1.0582757543    -0.5900600997     0.5320290261
 ----------------------------------------------------------------
 Molecular Point Group                 C2    NOp =  2
 Largest Abelian Subgroup              C2    NOp =  2
 Nuclear Repulsion Energy =          36.01660960 hartrees
 There are        9 alpha and        9 beta electrons

                       Distance Matrix (Angstroms)
             O (  1)   O (  2)   H (  3)
   O (  2)  1.484646
   H (  3)  1.941481  0.981605
   H (  4)  0.981605  1.941481  2.423319
 
 Applying Cartesian multipole field
    Component          Value
    ---------          -----
     (2,0,0)        1.00000E-10
     (0,2,0)        2.00000E-10
     (0,0,2)       -3.00000E-10
 Nucleus-field energy     = 3.8707103140e-09 hartrees
 Requested basis set is 6-31G
 There are 10 shells and 22 basis functions
 A cutoff of  1.0D-12 yielded     55 shell pairs
 There are       277 function pairs
 Smallest overlap matrix eigenvalue = 4.26E-02
 Guess MOs from SCF MO coefficient file

 -----------------------------------------------------------------------
  General SCF calculation program by
  Eric Jon Sundstrom, Paul Horn, Yuezhi Mao, Dmitri Zuev, Alec White,
  David Stuck, Shaama M.S., Shane Yost, Joonho Lee, David Small,
  Daniel Levine, Susi Lehtola, Hugh Burton, Evgeny Epifanovsky,
  Bang C. Huynh
 -----------------------------------------------------------------------
 Exchange:     0.1670 Hartree-Fock + 1.0000 wB97X-V + LR-HF
 Correlation:  1.0000 wB97X-V
 Using SG-2 standard quadrature grid
 Nonlocal Correlation:  VV10 with C = 0.0100 and b = 6.00 and scale = 1.00000
 Grid used for NLC:  SG-1 standard quadrature
 A restricted SCF calculation will be
 performed using DIIS
 SCF converges when DIIS error is below 1.0e-08
 ---------------------------------------
  Cycle       Energy         DIIS error
 ---------------------------------------
    1    -151.4257455408      3.78e-03  
    2    -151.4273925123      9.05e-04  
    3    -151.4275801398      2.85e-04  
    4    -151.4276011279      1.63e-04  
    5    -151.4276065457      3.38e-05  
    6    -151.4276069649      7.47e-06  
    7    -151.4276069850      6.34e-07  
    8    -151.4276069851      8.88e-08  
    9    -151.4276069851      1.19e-08  
   10    -151.4276069851      1.95e-09  Convergence criterion met
 ---------------------------------------
 SCF time:   CPU 7.10s  wall 7.00s 
 SCF   energy =  -151.42760699
 Total energy =  -151.42760699
 
 --------------------------------------------------------------
             Orbital Energies (a.u.) and Symmetries
 --------------------------------------------------------------
 
 Alpha MOs, Restricted
 -- Occupied --                  
-19.291 -19.291  -1.249  -1.039  -0.644  -0.585  -0.515  -0.419
  1 B     1 A     2 A     2 B     3 A     3 B     4 A     5 A                  
 -0.397
  4 B                                                                          
 -- Virtual --                   
  0.096   0.158   0.209   0.903   0.904   0.969   0.983   1.104
  5 B     6 A     6 B     7 A     7 B     8 B     8 A     9 B                  
  1.154   1.164   1.172   1.491   1.725
  9 A    10 A    10 B    11 A    11 B                                          
 
 Beta MOs, Restricted
 -- Occupied --                  
-19.291 -19.291  -1.249  -1.039  -0.644  -0.585  -0.515  -0.419
  1 B     1 A     2 A     2 B     3 A     3 B     4 A     5 A                  
 -0.397
  4 B                                                                          
 -- Virtual --                   
  0.096   0.158   0.209   0.903   0.904   0.969   0.983   1.104
  5 B     6 A     6 B     7 A     7 B     8 B     8 A     9 B                  
  1.154   1.164   1.172   1.491   1.725
  9 A    10 A    10 B    11 A    11 B                                          
 --------------------------------------------------------------
 
          Ground-State Mulliken Net Atomic Charges

     Atom                 Charge (a.u.)
  ----------------------------------------
      1 O                    -0.392754
      2 O                    -0.392754
      3 H                     0.392754
      4 H                     0.392754
  ----------------------------------------
  Sum of atomic charges =     0.000000

 -----------------------------------------------------------------
                    Cartesian Multipole Moments
 -----------------------------------------------------------------
    Charge (ESU x 10^10)
                 0.0000
    Dipole Moment (Debye)
         X       0.0000      Y      -0.0000      Z       2.5451
       Tot       2.5451
    Quadrupole Moments (Debye-Ang)
        XX     -10.1437     XY       3.2908     YY     -10.9925
        XZ      -0.0000     YZ      -0.0000     ZZ     -11.3022
    Octopole Moments (Debye-Ang^2)
       XXX       0.0000    XXY      -0.0000    XYY      -0.0000
       YYY      -0.0000    XXZ       3.1722    XYZ       1.4426
       YYZ       0.7808    XZZ      -0.0000    YZZ      -0.0000
       ZZZ       1.3369
    Hexadecapole Moments (Debye-Ang^3)
      XXXX     -42.9752   XXXY       4.5335   XXYY      -9.0225
      XYYY       2.6938   YYYY     -10.7371   XXXZ      -0.0000
      XXYZ      -0.0000   XYYZ      -0.0000   YYYZ      -0.0000
      XXZZ      -9.2398   XYZZ       1.2563   YYZZ      -3.1393
      XZZZ      -0.0000   YZZZ      -0.0000   ZZZZ      -9.9327
 -----------------------------------------------------------------
 Calculating analytic gradient of the SCF energy
 Gradient of SCF Energy
            1           2           3           4
    1   0.0041215  -0.0041215   0.0003743  -0.0003743
    2  -0.0049067   0.0049067  -0.0027131   0.0027131
    3  -0.0014015  -0.0014015   0.0014015   0.0014015
 Max gradient component =       4.907E-03
 RMS gradient           =       2.958E-03
 Gradient time:  CPU 0.96 s  wall 0.96 s

     Step 2	:
        Energy is -151.4276069851
                            Maximum         Tolerance       Converged?
         Gradient           5.42868136e-03	3.00000000e-04	false
         Displacement       1.19377495e-01	1.20000000e-03	false
         Energy change      3.02930197e-03	1.00000000e-06	false


	OPTIMIZATION CYCLE:	3

 Scaling Magnitude of Eigenvalues
 	Minimum: -25.00000000	 Maximum: 25.00000000
 6 Hessian Eigenvalues to form next step
   0.08927358   0.20000000   0.20000941   0.49921059   0.50000000
   0.54053713

 Minimum Search taking a RFO step
 Searching for Lambda that minimizes along all modes
	Value of Lambda   -0.00044391
	Norm  of Stepsize  0.06787476
	RMS   of Stepsize  0.02770975

	Performing Iterative Coordinate Back-Transformation

	  Starting from Previous Position

	  iter:	0	rms: 1.5301902947e-02	maxdev: 2.2423335490e-02
	  iter:	1	rms: 2.8131019458e-04	maxdev: 4.4925216172e-04
	  iter:	2	rms: 1.1137171441e-07	maxdev: 2.1984118330e-07	 Success!

	Finished Iterative Coordinate Back-Transformation
 ----------------------------------------------------------------
             Standard Nuclear Orientation (Angstroms)
    I     Atom           X                Y                Z
 ----------------------------------------------------------------
    1      O      -0.7346932589     0.1356725424    -0.0472848221
    2      O       0.7346932635    -0.1356725430    -0.0472848256
    3      H       1.0571711258     0.5972562178     0.5220322867
    4      H      -1.0571711305    -0.5972562173     0.5220322869
 ----------------------------------------------------------------
 Molecular Point Group                 C2    NOp =  2
 Largest Abelian Subgroup              C2    NOp =  2
 Nuclear Repulsion Energy =          35.87443809 hartrees
 There are        9 alpha and        9 beta electrons

                       Distance Matrix (Angstroms)
             O (  1)   O (  2)   H (  3)
   O (  2)  1.494231
   H (  3)  1.935965  0.982496
   H (  4)  0.982496  1.935965  2.428436
 
 Applying Cartesian multipole field
    Component          Value
    ---------          -----
     (2,0,0)        1.00000E-10
     (0,2,0)        2.00000E-10
     (0,0,2)       -3.00000E-10
 Nucleus-field energy     = 3.9799755081e-09 hartrees
 Requested basis set is 6-31G
 There are 10 shells and 22 basis functions
 A cutoff of  1.0D-12 yielded     55 shell pairs
 There are       277 function pairs
 Smallest overlap matrix eigenvalue = 4.31E-02
 Guess MOs from SCF MO coefficient file

 -----------------------------------------------------------------------
  General SCF calculation program by
  Eric Jon Sundstrom, Paul Horn, Yuezhi Mao, Dmitri Zuev, Alec White,
  David Stuck, Shaama M.S., Shane Yost, Joonho Lee, David Small,
  Daniel Levine, Susi Lehtola, Hugh Burton, Evgeny Epifanovsky,
  Bang C. Huynh
 -----------------------------------------------------------------------
 Exchange:     0.1670 Hartree-Fock + 1.0000 wB97X-V + LR-HF
 Correlation:  1.0000 wB97X-V
 Using SG-2 standard quadrature grid
 Nonlocal Correlation:  VV10 with C = 0.0100 and b = 6.00 and scale = 1.00000
 Grid used for NLC:  SG-1 standard quadrature
 A restricted SCF calculation will be
 performed using DIIS
 SCF converges when DIIS error is below 1.0e-08
 ---------------------------------------
  Cycle       Energy         DIIS error
 ---------------------------------------
    1    -151.4276504958      1.52e-03  
    2    -151.4279312725      3.70e-04  
    3    -151.4279591804      9.66e-05  
    4    -151.4279611755      5.48e-05  
    5    -151.4279616154      9.65e-06  
    6    -151.4279616516      2.95e-06  
    7    -151.4279616554      4.31e-07  
    8    -151.4279616555      8.27e-08  
    9    -151.4279616555      8.08e-08  
   10    -151.4279616555      8.54e-09  Convergence criterion met
 ---------------------------------------
 SCF time:   CPU 7.12s  wall 7.00s 
 SCF   energy =  -151.42796166
 Total energy =  -151.42796166
 
 --------------------------------------------------------------
             Orbital Energies (a.u.) and Symmetries
 --------------------------------------------------------------
 
 Alpha MOs, Restricted
 -- Occupied --                  
-19.292 -19.292  -1.246  -1.040  -0.638  -0.588  -0.515  -0.423
  1 B     1 A     2 A     2 B     3 A     3 B     4 A     5 A                  
 -0.396
  4 B                                                                          
 -- Virtual --                   
  0.093   0.158   0.207   0.904   0.904   0.970   0.981   1.102
  5 B     6 A     6 B     7 B     7 A     8 B     8 A     9 B                  
  1.156   1.159   1.170   1.493   1.728
  9 A    10 A    10 B    11 A    11 B                                          
 
 Beta MOs, Restricted
 -- Occupied --                  
-19.292 -19.292  -1.246  -1.040  -0.638  -0.588  -0.515  -0.423
  1 B     1 A     2 A     2 B     3 A     3 B     4 A     5 A                  
 -0.396
  4 B                                                                          
 -- Virtual --                   
  0.093   0.158   0.207   0.904   0.904   0.970   0.981   1.102
  5 B     6 A     6 B     7 B     7 A     8 B     8 A     9 B                  
  1.156   1.159   1.170   1.493   1.728
  9 A    10 A    10 B    11 A    11 B                                          
 --------------------------------------------------------------
 
          Ground-State Mulliken Net Atomic Charges

     Atom                 Charge (a.u.)
  ----------------------------------------
      1 O                    -0.394019
      2 O                    -0.394019
      3 H                     0.394019
      4 H                     0.394019
  ----------------------------------------
  Sum of atomic charges =     0.000000

 -----------------------------------------------------------------
                    Cartesian Multipole Moments
 -----------------------------------------------------------------
    Charge (ESU x 10^10)
                 0.0000
    Dipole Moment (Debye)
         X      -0.0000      Y      -0.0000      Z       2.4549
       Tot       2.4549
    Quadrupole Moments (Debye-Ang)
        XX     -10.1248     XY       3.3596     YY     -10.9586
        XZ      -0.0000     YZ       0.0000     ZZ     -11.3605
    Octopole Moments (Debye-Ang^2)
       XXX      -0.0000    XXY      -0.0000    XYY      -0.0000
       YYY       0.0000    XXZ       2.9948    XYZ       1.4377
       YYZ       0.6708    XZZ      -0.0000    YZZ       0.0000
       ZZZ       0.9905
    Hexadecapole Moments (Debye-Ang^3)
      XXXX     -43.2098   XXXY       4.8148   XXYY      -9.0496
      XYYY       3.0178   YYYY     -10.9302   XXXZ       0.0000
      XXYZ      -0.0000   XYYZ       0.0000   YYYZ      -0.0000
      XXZZ      -9.3046   XYZZ       1.3531   YYZZ      -3.1689
      XZZZ       0.0000   YZZZ      -0.0000   ZZZZ      -9.8578
 -----------------------------------------------------------------
 Calculating analytic gradient of the SCF energy
 Gradient of SCF Energy
            1           2           3           4
    1   0.0004348  -0.0004348  -0.0007352   0.0007352
    2  -0.0015481   0.0015481  -0.0014460   0.0014460
    3  -0.0020372  -0.0020372   0.0020372   0.0020372
 Max gradient component =       2.037E-03
 RMS gradient           =       1.501E-03
 Gradient time:  CPU 0.96 s  wall 0.96 s

     Step 3	:
        Energy is -151.4279616555
                            Maximum         Tolerance       Converged?
         Gradient           3.65909259e-03	3.00000000e-04	false
         Displacement       4.69053768e-02	1.20000000e-03	false
         Energy change      3.54670389e-04	1.00000000e-06	false


	OPTIMIZATION CYCLE:	4

 Scaling Magnitude of Eigenvalues
 	Minimum: -25.00000000	 Maximum: 25.00000000
 6 Hessian Eigenvalues to form next step
   0.02430821   0.20000000   0.29673582   0.50000000   0.50507489
   0.53241557

 Minimum Search taking a RFO step
 Searching for Lambda that minimizes along all modes
	Value of Lambda   -0.00078620
	Norm  of Stepsize  0.17545467
	RMS   of Stepsize  0.07162907

	Performing Iterative Coordinate Back-Transformation

	  Starting from Previous Position

	  iter:	0	rms: 4.3744503166e-02	maxdev: 5.9644862594e-02
	  iter:	1	rms: 1.8546196233e-03	maxdev: 2.3492874486e-03
	  iter:	2	rms: 3.1169105358e-06	maxdev: 6.2930335966e-06
	  iter:	3	rms: 3.3179052043e-12	maxdev: 3.9492790329e-12	 Success!

	Finished Iterative Coordinate Back-Transformation
 ----------------------------------------------------------------
             Standard Nuclear Orientation (Angstroms)
    I     Atom           X                Y                Z
 ----------------------------------------------------------------
    1      O      -0.7376972737     0.1580032244    -0.0144799529
    2      O       0.7376972712    -0.1580032239    -0.0144799516
    3      H       1.0687314434     0.6189207408     0.4892274152
    4      H      -1.0687314409    -0.6189207413     0.4892274151
 ----------------------------------------------------------------
 Molecular Point Group                 C2    NOp =  2
 Largest Abelian Subgroup              C2    NOp =  2
 Nuclear Repulsion Energy =          35.65474721 hartrees
 There are        9 alpha and        9 beta electrons

                       Distance Matrix (Angstroms)
             O (  1)   O (  2)   H (  3)
   O (  2)  1.508857
   H (  3)  1.931153  0.983319
   H (  4)  0.983319  1.931153  2.470020
 
 Applying Cartesian multipole field
    Component          Value
    ---------          -----
     (2,0,0)        1.00000E-10
     (0,2,0)        2.00000E-10
     (0,0,2)       -3.00000E-10
 Nucleus-field energy     = 4.2411884574e-09 hartrees
 Requested basis set is 6-31G
 There are 10 shells and 22 basis functions
 A cutoff of  1.0D-12 yielded     55 shell pairs
 There are       277 function pairs
 Smallest overlap matrix eigenvalue = 4.40E-02
 Guess MOs from SCF MO coefficient file

 -----------------------------------------------------------------------
  General SCF calculation program by
  Eric Jon Sundstrom, Paul Horn, Yuezhi Mao, Dmitri Zuev, Alec White,
  David Stuck, Shaama M.S., Shane Yost, Joonho Lee, David Small,
  Daniel Levine, Susi Lehtola, Hugh Burton, Evgeny Epifanovsky,
  Bang C. Huynh
 -----------------------------------------------------------------------
 Exchange:     0.1670 Hartree-Fock + 1.0000 wB97X-V + LR-HF
 Correlation:  1.0000 wB97X-V
 Using SG-2 standard quadrature grid
 Nonlocal Correlation:  VV10 with C = 0.0100 and b = 6.00 and scale = 1.00000
 Grid used for NLC:  SG-1 standard quadrature
 A restricted SCF calculation will be
 performed using DIIS
 SCF converges when DIIS error is below 1.0e-08
 ---------------------------------------
  Cycle       Energy         DIIS error
 ---------------------------------------
    1    -151.4265722020      3.82e-03  
    2    -151.4283465842      9.24e-04  
    3    -151.4285115105      1.91e-04  
    4    -151.4285212063      9.53e-05  
    5    -151.4285221410      1.71e-05  
    6    -151.4285222326      5.15e-06  
    7    -151.4285222450      1.28e-06  
    8    -151.4285222457      1.93e-07  
    9    -151.4285222457      2.67e-08  
   10    -151.4285222457      6.42e-09  Convergence criterion met
 ---------------------------------------
 SCF time:   CPU 7.12s  wall 7.00s 
 SCF   energy =  -151.42852225
 Total energy =  -151.42852225
 
 --------------------------------------------------------------
             Orbital Energies (a.u.) and Symmetries
 --------------------------------------------------------------
 
 Alpha MOs, Restricted
 -- Occupied --                  
-19.292 -19.292  -1.241  -1.041  -0.628  -0.593  -0.512  -0.432
  1 A     1 B     2 A     2 B     3 A     3 B     4 A     5 A                  
 -0.390
  4 B                                                                          
 -- Virtual --                   
  0.087   0.159   0.205   0.904   0.908   0.973   0.976   1.099
  5 B     6 A     6 B     7 B     7 A     8 B     8 A     9 B                  
  1.153   1.161   1.167   1.493   1.733
  9 A    10 A    10 B    11 A    11 B                                          
 
 Beta MOs, Restricted
 -- Occupied --                  
-19.292 -19.292  -1.241  -1.041  -0.628  -0.593  -0.512  -0.432
  1 A     1 B     2 A     2 B     3 A     3 B     4 A     5 A                  
 -0.390
  4 B                                                                          
 -- Virtual --                   
  0.087   0.159   0.205   0.904   0.908   0.973   0.976   1.099
  5 B     6 A     6 B     7 B     7 A     8 B     8 A     9 B                  
  1.153   1.161   1.167   1.493   1.733
  9 A    10 A    10 B    11 A    11 B                                          
 --------------------------------------------------------------
 
          Ground-State Mulliken Net Atomic Charges

     Atom                 Charge (a.u.)
  ----------------------------------------
      1 O                    -0.397017
      2 O                    -0.397017
      3 H                     0.397017
      4 H                     0.397017
  ----------------------------------------
  Sum of atomic charges =     0.000000

 -----------------------------------------------------------------
                    Cartesian Multipole Moments
 -----------------------------------------------------------------
    Charge (ESU x 10^10)
                 0.0000
    Dipole Moment (Debye)
         X       0.0000      Y      -0.0000      Z       2.1784
       Tot       2.1784
    Quadrupole Moments (Debye-Ang)
        XX      -9.9530     XY       3.5847     YY     -10.8387
        XZ      -0.0000     YZ      -0.0000     ZZ     -11.5391
    Octopole Moments (Debye-Ang^2)
       XXX       0.0000    XXY      -0.0000    XYY      -0.0000
       YYY      -0.0000    XXZ       2.4618    XYZ       1.4316
       YYZ       0.3236    XZZ      -0.0000    YZZ      -0.0000
       ZZZ      -0.1489
    Hexadecapole Moments (Debye-Ang^3)
      XXXX     -43.2593   XXXY       5.4994   XXYY      -9.0005
      XYYY       3.6515   YYYY     -11.3249   XXXZ      -0.0000
      XXYZ      -0.0000   XYYZ      -0.0000   YYYZ      -0.0000
      XXZZ      -9.4236   XYZZ       1.5233   YYZZ      -3.2561
      XZZZ      -0.0000   YZZZ      -0.0000   ZZZZ      -9.6907
 -----------------------------------------------------------------
 Calculating analytic gradient of the SCF energy
 Gradient of SCF Energy
            1           2           3           4
    1  -0.0046448   0.0046448  -0.0013652   0.0013652
    2   0.0026070  -0.0026070   0.0003152  -0.0003152
    3  -0.0022302  -0.0022302   0.0022302   0.0022302
 Max gradient component =       4.645E-03
 RMS gradient           =       2.591E-03
 Gradient time:  CPU 0.96 s  wall 0.96 s

     Step 4	:
        Energy is -151.4285222457
                            Maximum         Tolerance       Converged?
         Gradient           4.44393006e-03	3.00000000e-04	false
         Displacement       1.41543707e-01	1.20000000e-03	false
         Energy change      5.60590278e-04	1.00000000e-06	false


	OPTIMIZATION CYCLE:	5

 Scaling Magnitude of Eigenvalues
 	Minimum: -25.00000000	 Maximum: 25.00000000
 6 Hessian Eigenvalues to form next step
   0.01203015   0.20000000   0.32778395   0.50000000   0.50579268
   0.56408241

 Minimum Search taking a RFO step
 Searching for Lambda that minimizes along all modes
	Value of Lambda   -0.00057844
	Norm  of Stepsize  0.19481781
	RMS   of Stepsize  0.07953404

	Performing Iterative Coordinate Back-Transformation

	  Starting from Previous Position

	  iter:	0	rms: 5.1685851097e-02	maxdev: 7.5439369801e-02
	  iter:	1	rms: 2.5002138805e-03	maxdev: 3.5280735596e-03
	  iter:	2	rms: 2.2916188031e-06	maxdev: 3.9274126054e-06
	  iter:	3	rms: 9.1069908075e-13	maxdev: 1.2724766807e-12	 Success!

	Finished Iterative Coordinate Back-Transformation
 ----------------------------------------------------------------
             Standard Nuclear Orientation (Angstroms)
    I     Atom           X                Y                Z
 ----------------------------------------------------------------
    1      O      -0.7368945696     0.1749774435     0.0266201216
    2      O       0.7368945939    -0.1749774486     0.0266201050
    3      H       1.0867385425     0.6411841855     0.4481273496
    4      H      -1.0867385668    -0.6411841804     0.4481273496
 ----------------------------------------------------------------
 Molecular Point Group                 C2    NOp =  2
 Largest Abelian Subgroup              C2    NOp =  2
 Nuclear Repulsion Energy =          35.57100800 hartrees
 There are        9 alpha and        9 beta electrons

                       Distance Matrix (Angstroms)
             O (  1)   O (  2)   H (  3)
   O (  2)  1.514768
   H (  3)  1.928900  0.982944
   H (  4)  0.982944  1.928900  2.523583
 
 Applying Cartesian multipole field
    Component          Value
    ---------          -----
     (2,0,0)        1.00000E-10
     (0,2,0)        2.00000E-10
     (0,0,2)       -3.00000E-10
 Nucleus-field energy     = 4.4408020993e-09 hartrees
 Requested basis set is 6-31G
 There are 10 shells and 22 basis functions
 A cutoff of  1.0D-12 yielded     55 shell pairs
 There are       277 function pairs
 Smallest overlap matrix eigenvalue = 4.43E-02
 Guess MOs from SCF MO coefficient file

 -----------------------------------------------------------------------
  General SCF calculation program by
  Eric Jon Sundstrom, Paul Horn, Yuezhi Mao, Dmitri Zuev, Alec White,
  David Stuck, Shaama M.S., Shane Yost, Joonho Lee, David Small,
  Daniel Levine, Susi Lehtola, Hugh Burton, Evgeny Epifanovsky,
  Bang C. Huynh
 -----------------------------------------------------------------------
 Exchange:     0.1670 Hartree-Fock + 1.0000 wB97X-V + LR-HF
 Correlation:  1.0000 wB97X-V
 Using SG-2 standard quadrature grid
 Nonlocal Correlation:  VV10 with C = 0.0100 and b = 6.00 and scale = 1.00000
 Grid used for NLC:  SG-1 standard quadrature
 A restricted SCF calculation will be
 performed using DIIS
 SCF converges when DIIS error is below 1.0e-08
 ---------------------------------------
  Cycle       Energy         DIIS error
 ---------------------------------------
    1    -151.4266058948      4.22e-03  
    2    -151.4287546091      1.02e-03  
    3    -151.4289478514      1.83e-04  
    4    -151.4289584097      2.59e-05  
    5    -151.4289585608      1.44e-05  
    6    -151.4289585742      2.05e-06  
    7    -151.4289585758      7.73e-07  
    8    -151.4289585761      2.51e-07  
    9    -151.4289585761      2.34e-07  
   10    -151.4289585761      1.91e-08  
   11    -151.4289585761      1.89e-09  Convergence criterion met
 ---------------------------------------
 SCF time:   CPU 7.82s  wall 8.00s 
 SCF   energy =  -151.42895858
 Total energy =  -151.42895858
 
 --------------------------------------------------------------
             Orbital Energies (a.u.) and Symmetries
 --------------------------------------------------------------
 
 Alpha MOs, Restricted
 -- Occupied --                  
-19.292 -19.292  -1.238  -1.041  -0.621  -0.597  -0.510  -0.441
  1 A     1 B     2 A     2 B     3 A     3 B     4 A     5 A                  
 -0.384
  4 B                                                                          
 -- Virtual --                   
  0.085   0.160   0.206   0.903   0.913   0.971   0.976   1.095
  5 B     6 A     6 B     7 B     7 A     8 A     8 B     9 B                  
  1.149   1.167   1.167   1.491   1.737
  9 A    10 B    10 A    11 A    11 B                                          
 
 Beta MOs, Restricted
 -- Occupied --                  
-19.292 -19.292  -1.238  -1.041  -0.621  -0.597  -0.510  -0.441
  1 A     1 B     2 A     2 B     3 A     3 B     4 A     5 A                  
 -0.384
  4 B                                                                          
 -- Virtual --                   
  0.085   0.160   0.206   0.903   0.913   0.971   0.976   1.095
  5 B     6 A     6 B     7 B     7 A     8 A     8 B     9 B                  
  1.149   1.167   1.167   1.491   1.737
  9 A    10 B    10 A    11 A    11 B                                          
 --------------------------------------------------------------
 
          Ground-State Mulliken Net Atomic Charges

     Atom                 Charge (a.u.)
  ----------------------------------------
      1 O                    -0.399638
      2 O                    -0.399638
      3 H                     0.399638
      4 H                     0.399638
  ----------------------------------------
  Sum of atomic charges =     0.000000

 -----------------------------------------------------------------
                    Cartesian Multipole Moments
 -----------------------------------------------------------------
    Charge (ESU x 10^10)
                 0.0000
    Dipole Moment (Debye)
         X      -0.0000      Y      -0.0000      Z       1.8353
       Tot       1.8353
    Quadrupole Moments (Debye-Ang)
        XX      -9.7197     XY       3.8318     YY     -10.7021
        XZ       0.0000     YZ       0.0000     ZZ     -11.7493
    Octopole Moments (Debye-Ang^2)
       XXX      -0.0000    XXY      -0.0000    XYY      -0.0000
       YYY       0.0000    XXZ       1.7827    XYZ       1.4107
       YYZ      -0.1110    XZZ      -0.0000    YZZ       0.0000
       ZZZ      -1.5869
    Hexadecapole Moments (Debye-Ang^3)
      XXXX     -42.8517   XXXY       6.1377   XXYY      -8.8557
      XYYY       4.1510   YYYY     -11.6368   XXXZ       0.0000
      XXYZ      -0.0000   XYYZ       0.0000   YYYZ      -0.0000
      XXZZ      -9.5391   XYZZ       1.6258   YYZZ      -3.3834
      XZZZ       0.0000   YZZZ      -0.0000   ZZZZ      -9.6707
 -----------------------------------------------------------------
 Calculating analytic gradient of the SCF energy
 Gradient of SCF Energy
            1           2           3           4
    1  -0.0060348   0.0060348  -0.0010854   0.0010854
    2   0.0037171  -0.0037171   0.0009157  -0.0009157
    3  -0.0016056  -0.0016056   0.0016056   0.0016056
 Max gradient component =       6.035E-03
 RMS gradient           =       3.093E-03
 Gradient time:  CPU 0.96 s  wall 0.96 s

     Step 5	:
        Energy is -151.4289585761
                            Maximum         Tolerance       Converged?
         Gradient           5.80839718e-03	3.00000000e-04	false
         Displacement       1.67842014e-01	1.20000000e-03	false
         Energy change      4.36330383e-04	1.00000000e-06	false


	OPTIMIZATION CYCLE:	6

 Scaling Magnitude of Eigenvalues
 	Minimum: -25.00000000	 Maximum: 25.00000000
 6 Hessian Eigenvalues to form next step
   0.00700558   0.20000000   0.27701155   0.50000000   0.50422009
   0.56126597

 Minimum Search taking a RFO step
 Searching for Lambda that minimizes along all modes
	Value of Lambda   -0.00050937
	Norm  of Stepsize  0.22195054
	RMS   of Stepsize  0.09061093

	Performing Iterative Coordinate Back-Transformation

	  Starting from Previous Position

	  iter:	0	rms: 5.9876646229e-02	maxdev: 9.2235890379e-02
	  iter:	1	rms: 3.4735171262e-03	maxdev: 5.3018842918e-03
	  iter:	2	rms: 2.2507547345e-06	maxdev: 4.5150026414e-06
	  iter:	3	rms: 3.6681830557e-12	maxdev: 6.7427799100e-12	 Success!

	Finished Iterative Coordinate Back-Transformation
 ----------------------------------------------------------------
             Standard Nuclear Orientation (Angstroms)
    I     Atom           X                Y                Z
 ----------------------------------------------------------------
    1      O      -0.7326544359     0.1871125872     0.0765596353
    2      O       0.7326544301    -0.1871125848     0.0765596327
    3      H       1.1065078807     0.6617595321     0.3981878289
    4      H      -1.1065078748    -0.6617595346     0.3981878290
 ----------------------------------------------------------------
 Molecular Point Group                 C2    NOp =  2
 Largest Abelian Subgroup              C2    NOp =  2
 Nuclear Repulsion Energy =          35.61862600 hartrees
 There are        9 alpha and        9 beta electrons

                       Distance Matrix (Angstroms)
             O (  1)   O (  2)   H (  3)
   O (  2)  1.512341
   H (  3)  1.926461  0.981731
   H (  4)  0.981731  1.926461  2.578593
 
 Applying Cartesian multipole field
    Component          Value
    ---------          -----
     (2,0,0)        1.00000E-10
     (0,2,0)        2.00000E-10
     (0,0,2)       -3.00000E-10
 Nucleus-field energy     = 4.5269070408e-09 hartrees
 Requested basis set is 6-31G
 There are 10 shells and 22 basis functions
 A cutoff of  1.0D-12 yielded     55 shell pairs
 There are       277 function pairs
 Smallest overlap matrix eigenvalue = 4.40E-02
 Guess MOs from SCF MO coefficient file

 -----------------------------------------------------------------------
  General SCF calculation program by
  Eric Jon Sundstrom, Paul Horn, Yuezhi Mao, Dmitri Zuev, Alec White,
  David Stuck, Shaama M.S., Shane Yost, Joonho Lee, David Small,
  Daniel Levine, Susi Lehtola, Hugh Burton, Evgeny Epifanovsky,
  Bang C. Huynh
 -----------------------------------------------------------------------
 Exchange:     0.1670 Hartree-Fock + 1.0000 wB97X-V + LR-HF
 Correlation:  1.0000 wB97X-V
 Using SG-2 standard quadrature grid
 Nonlocal Correlation:  VV10 with C = 0.0100 and b = 6.00 and scale = 1.00000
 Grid used for NLC:  SG-1 standard quadrature
 A restricted SCF calculation will be
 performed using DIIS
 SCF converges when DIIS error is below 1.0e-08
 ---------------------------------------
  Cycle       Energy         DIIS error
 ---------------------------------------
    1    -151.4262815187      4.82e-03  
    2    -151.4290587602      1.16e-03  
    3    -151.4293048601      2.09e-04  
    4    -151.4293180164      7.41e-05  
    5    -151.4293184861      1.67e-05  
    6    -151.4293185294      2.14e-06  
    7    -151.4293185308      7.13e-07  
    8    -151.4293185311      2.11e-07  
    9    -151.4293185311      2.85e-08  
   10    -151.4293185311      3.10e-09  Convergence criterion met
 ---------------------------------------
 SCF time:   CPU 7.12s  wall 7.00s 
 SCF   energy =  -151.42931853
 Total energy =  -151.42931853
 
 --------------------------------------------------------------
             Orbital Energies (a.u.) and Symmetries
 --------------------------------------------------------------
 
 Alpha MOs, Restricted
 -- Occupied --                  
-19.290 -19.290  -1.238  -1.040  -0.617  -0.601  -0.507  -0.449
  1 B     1 A     2 A     2 B     3 A     3 B     4 A     5 A                  
 -0.376
  4 B                                                                          
 -- Virtual --                   
  0.087   0.161   0.208   0.901   0.919   0.968   0.979   1.092
  5 B     6 A     6 B     7 B     7 A     8 A     8 B     9 B                  
  1.146   1.168   1.174   1.489   1.740
  9 A    10 B    10 A    11 A    11 B                                          
 
 Beta MOs, Restricted
 -- Occupied --                  
-19.290 -19.290  -1.238  -1.040  -0.617  -0.601  -0.507  -0.449
  1 B     1 A     2 A     2 B     3 A     3 B     4 A     5 A                  
 -0.376
  4 B                                                                          
 -- Virtual --                   
  0.087   0.161   0.208   0.901   0.919   0.968   0.979   1.092
  5 B     6 A     6 B     7 B     7 A     8 A     8 B     9 B                  
  1.146   1.168   1.174   1.489   1.740
  9 A    10 B    10 A    11 A    11 B                                          
 --------------------------------------------------------------
 
          Ground-State Mulliken Net Atomic Charges

     Atom                 Charge (a.u.)
  ----------------------------------------
      1 O                    -0.401813
      2 O                    -0.401813
      3 H                     0.401813
      4 H                     0.401813
  ----------------------------------------
  Sum of atomic charges =     0.000000

 -----------------------------------------------------------------
                    Cartesian Multipole Moments
 -----------------------------------------------------------------
    Charge (ESU x 10^10)
                -0.0000
    Dipole Moment (Debye)
         X      -0.0000      Y       0.0000      Z       1.4130
       Tot       1.4130
    Quadrupole Moments (Debye-Ang)
        XX      -9.4670     XY       4.0769     YY     -10.5656
        XZ       0.0000     YZ       0.0000     ZZ     -11.9896
    Octopole Moments (Debye-Ang^2)
       XXX       0.0000    XXY       0.0000    XYY       0.0000
       YYY      -0.0000    XXZ       0.9159    XYZ       1.3613
       YYZ      -0.6475    XZZ       0.0000    YZZ      -0.0000
       ZZZ      -3.3457
    Hexadecapole Moments (Debye-Ang^3)
      XXXX     -42.0710   XXXY       6.6942   XXYY      -8.6366
      XYYY       4.5245   YYYY     -11.8511   XXXZ       0.0000
      XXYZ       0.0000   XYYZ       0.0000   YYYZ      -0.0000
      XXZZ      -9.6937   XYZZ       1.6599   YYZZ      -3.5651
      XZZZ       0.0000   YZZZ      -0.0000   ZZZZ      -9.9492
 -----------------------------------------------------------------
 Calculating analytic gradient of the SCF energy
 Gradient of SCF Energy
            1           2           3           4
    1  -0.0040226   0.0040226  -0.0003697   0.0003697
    2   0.0021893  -0.0021893   0.0005604  -0.0005604
    3  -0.0007016  -0.0007016   0.0007016   0.0007016
 Max gradient component =       4.023E-03
 RMS gradient           =       1.933E-03
 Gradient time:  CPU 0.96 s  wall 0.96 s

     Step 6	:
        Energy is -151.4293185311
                            Maximum         Tolerance       Converged?
         Gradient           3.79179947e-03	3.00000000e-04	false
         Displacement       1.97009425e-01	1.20000000e-03	false
         Energy change      3.59954979e-04	1.00000000e-06	false


	OPTIMIZATION CYCLE:	7

 Scaling Magnitude of Eigenvalues
 	Minimum: -25.00000000	 Maximum: 25.00000000
 6 Hessian Eigenvalues to form next step
   0.00499568   0.20000000   0.23434007   0.50000000   0.50404045
   0.53507745

 Minimum Search taking a RFO step
 Searching for Lambda that minimizes along all modes
	Value of Lambda   -0.00020267
	Norm  of Stepsize  0.16607421
	RMS   of Stepsize  0.06779951

	Performing Iterative Coordinate Back-Transformation

	  Starting from Previous Position

	  iter:	0	rms: 4.4353863539e-02	maxdev: 7.2057391782e-02
	  iter:	1	rms: 1.9960876018e-03	maxdev: 3.1243034660e-03
	  iter:	2	rms: 7.2005920160e-07	maxdev: 1.1780435366e-06	 Success!

	Finished Iterative Coordinate Back-Transformation
 ----------------------------------------------------------------
             Standard Nuclear Orientation (Angstroms)
    I     Atom           X                Y                Z
 ----------------------------------------------------------------
    1      O      -0.7283006986     0.1932313975     0.1151458714
    2      O       0.7283006873    -0.1932313928     0.1151458725
    3      H       1.1174589967     0.6730966539     0.3596015908
    4      H      -1.1174589853    -0.6730966586     0.3596015912
 ----------------------------------------------------------------
 Molecular Point Group                 C2    NOp =  2
 Largest Abelian Subgroup              C2    NOp =  2
 Nuclear Repulsion Energy =          35.71344882 hartrees
 There are        9 alpha and        9 beta electrons

                       Distance Matrix (Angstroms)
             O (  1)   O (  2)   H (  3)
   O (  2)  1.506997
   H (  3)  1.922722  0.980677
   H (  4)  0.980677  1.922722  2.609041
 
 Applying Cartesian multipole field
    Component          Value
    ---------          -----
     (2,0,0)        1.00000E-10
     (0,2,0)        2.00000E-10
     (0,0,2)       -3.00000E-10
 Nucleus-field energy     = 4.4920255376e-09 hartrees
 Requested basis set is 6-31G
 There are 10 shells and 22 basis functions
 A cutoff of  1.0D-12 yielded     55 shell pairs
 There are       277 function pairs
 Smallest overlap matrix eigenvalue = 4.35E-02
 Guess MOs from SCF MO coefficient file

 -----------------------------------------------------------------------
  General SCF calculation program by
  Eric Jon Sundstrom, Paul Horn, Yuezhi Mao, Dmitri Zuev, Alec White,
  David Stuck, Shaama M.S., Shane Yost, Joonho Lee, David Small,
  Daniel Levine, Susi Lehtola, Hugh Burton, Evgeny Epifanovsky,
  Bang C. Huynh
 -----------------------------------------------------------------------
 Exchange:     0.1670 Hartree-Fock + 1.0000 wB97X-V + LR-HF
 Correlation:  1.0000 wB97X-V
 Using SG-2 standard quadrature grid
 Nonlocal Correlation:  VV10 with C = 0.0100 and b = 6.00 and scale = 1.00000
 Grid used for NLC:  SG-1 standard quadrature
 A restricted SCF calculation will be
 performed using DIIS
 SCF converges when DIIS error is below 1.0e-08
 ---------------------------------------
  Cycle       Energy         DIIS error
 ---------------------------------------
    1    -151.4277541968      3.62e-03  
    2    -151.4293073882      8.67e-04  
    3    -151.4294441954      1.66e-04  
    4    -151.4294513585      9.02e-05  
    5    -151.4294521102      1.16e-05  
    6    -151.4294521442      2.31e-06  
    7    -151.4294521465      7.67e-07  
    8    -151.4294521469      1.73e-07  
    9    -151.4294521469      1.53e-07  
   10    -151.4294521469      1.35e-08  
   11    -151.4294521469      9.79e-10  Convergence criterion met
 ---------------------------------------
 SCF time:   CPU 7.82s  wall 8.00s 
 SCF   energy =  -151.42945215
 Total energy =  -151.42945215
 
 --------------------------------------------------------------
             Orbital Energies (a.u.) and Symmetries
 --------------------------------------------------------------
 
 Alpha MOs, Restricted
 -- Occupied --                  
-19.289 -19.289  -1.239  -1.040  -0.615  -0.604  -0.505  -0.454
  1 B     1 A     2 A     2 B     3 A     3 B     4 A     5 A                  
 -0.372
  4 B                                                                          
 -- Virtual --                   
  0.090   0.162   0.210   0.900   0.923   0.966   0.980   1.090
  5 B     6 A     6 B     7 B     7 A     8 A     8 B     9 B                  
  1.143   1.170   1.179   1.488   1.742
  9 A    10 B    10 A    11 A    11 B                                          
 
 Beta MOs, Restricted
 -- Occupied --                  
-19.289 -19.289  -1.239  -1.040  -0.615  -0.604  -0.505  -0.454
  1 B     1 A     2 A     2 B     3 A     3 B     4 A     5 A                  
 -0.372
  4 B                                                                          
 -- Virtual --                   
  0.090   0.162   0.210   0.900   0.923   0.966   0.980   1.090
  5 B     6 A     6 B     7 B     7 A     8 A     8 B     9 B                  
  1.143   1.170   1.179   1.488   1.742
  9 A    10 B    10 A    11 A    11 B                                          
 --------------------------------------------------------------
 
          Ground-State Mulliken Net Atomic Charges

     Atom                 Charge (a.u.)
  ----------------------------------------
      1 O                    -0.403023
      2 O                    -0.403023
      3 H                     0.403023
      4 H                     0.403023
  ----------------------------------------
  Sum of atomic charges =     0.000000

 -----------------------------------------------------------------
                    Cartesian Multipole Moments
 -----------------------------------------------------------------
    Charge (ESU x 10^10)
                 0.0000
    Dipole Moment (Debye)
         X       0.0000      Y      -0.0000      Z       1.0804
       Tot       1.0804
    Quadrupole Moments (Debye-Ang)
        XX      -9.3186     XY       4.2204     YY     -10.4863
        XZ       0.0000     YZ      -0.0000     ZZ     -12.1667
    Octopole Moments (Debye-Ang^2)
       XXX       0.0000    XXY      -0.0000    XYY       0.0000
       YYY      -0.0000    XXZ       0.2106    XYZ       1.3048
       YYZ      -1.0714    XZZ       0.0000    YZZ      -0.0000
       ZZZ      -4.7102
    Hexadecapole Moments (Debye-Ang^3)
      XXXX     -41.4303   XXXY       6.9955   XXYY      -8.4737
      XYYY       4.7161   YYYY     -11.9522   XXXZ       0.0000
      XXYZ       0.0000   XYYZ       0.0000   YYYZ      -0.0000
      XXZZ      -9.8450   XYZZ       1.6514   YYZZ      -3.7267
      XZZZ       0.0000   YZZZ      -0.0000   ZZZZ     -10.4031
 -----------------------------------------------------------------
 Calculating analytic gradient of the SCF energy
 Gradient of SCF Energy
            1           2           3           4
    1  -0.0010419   0.0010419  -0.0000796   0.0000796
    2   0.0003713  -0.0003713   0.0000295  -0.0000295
    3  -0.0002107  -0.0002107   0.0002107   0.0002107
 Max gradient component =       1.042E-03
 RMS gradient           =       4.689E-04
 Gradient time:  CPU 0.96 s  wall 0.96 s

     Step 7	:
        Energy is -151.4294521469
                            Maximum         Tolerance       Converged?
         Gradient           9.01687094e-04	3.00000000e-04	false
         Displacement       1.49055014e-01	1.20000000e-03	false
         Energy change      1.33615779e-04	1.00000000e-06	false


	OPTIMIZATION CYCLE:	8

 Scaling Magnitude of Eigenvalues
 	Minimum: -25.00000000	 Maximum: 25.00000000
 6 Hessian Eigenvalues to form next step
   0.00338597   0.20000000   0.23079461   0.50000000   0.50496176
   0.52681929

 Minimum Search taking a RFO step
 Searching for Lambda that minimizes along all modes
	Value of Lambda   -0.00004429
	Norm  of Stepsize  0.10932758
	RMS   of Stepsize  0.04463280

	Performing Iterative Coordinate Back-Transformation

	  Starting from Previous Position

	  iter:	0	rms: 2.8934127661e-02	maxdev: 4.8431308869e-02
	  iter:	1	rms: 8.7107983474e-04	maxdev: 1.3703344586e-03
	  iter:	2	rms: 1.4948742735e-07	maxdev: 2.4575282172e-07	 Success!

	Finished Iterative Coordinate Back-Transformation
 ----------------------------------------------------------------
             Standard Nuclear Orientation (Angstroms)
    I     Atom           X                Y                Z
 ----------------------------------------------------------------
    1      O      -0.7262744651     0.1969688764     0.1409372949
    2      O       0.7262744652    -0.1969688760     0.1409372926
    3      H       1.1222436488     0.6787649428     0.3338101691
    4      H      -1.1222436489    -0.6787649432     0.3338101693
 ----------------------------------------------------------------
 Molecular Point Group                 C2    NOp =  2
 Largest Abelian Subgroup              C2    NOp =  2
 Nuclear Repulsion Energy =          35.75187132 hartrees
 There are        9 alpha and        9 beta electrons

                       Distance Matrix (Angstroms)
             O (  1)   O (  2)   H (  3)
   O (  2)  1.505020
   H (  3)  1.919986  0.980256
   H (  4)  0.980256  1.919986  2.623092
 
 Applying Cartesian multipole field
    Component          Value
    ---------          -----
     (2,0,0)        1.00000E-10
     (0,2,0)        2.00000E-10
     (0,0,2)       -3.00000E-10
 Nucleus-field energy     = 4.4355565707e-09 hartrees
 Requested basis set is 6-31G
 There are 10 shells and 22 basis functions
 A cutoff of  1.0D-12 yielded     55 shell pairs
 There are       277 function pairs
 Smallest overlap matrix eigenvalue = 4.33E-02
 Guess MOs from SCF MO coefficient file

 -----------------------------------------------------------------------
  General SCF calculation program by
  Eric Jon Sundstrom, Paul Horn, Yuezhi Mao, Dmitri Zuev, Alec White,
  David Stuck, Shaama M.S., Shane Yost, Joonho Lee, David Small,
  Daniel Levine, Susi Lehtola, Hugh Burton, Evgeny Epifanovsky,
  Bang C. Huynh
 -----------------------------------------------------------------------
 Exchange:     0.1670 Hartree-Fock + 1.0000 wB97X-V + LR-HF
 Correlation:  1.0000 wB97X-V
 Using SG-2 standard quadrature grid
 Nonlocal Correlation:  VV10 with C = 0.0100 and b = 6.00 and scale = 1.00000
 Grid used for NLC:  SG-1 standard quadrature
 A restricted SCF calculation will be
 performed using DIIS
 SCF converges when DIIS error is below 1.0e-08
 ---------------------------------------
  Cycle       Energy         DIIS error
 ---------------------------------------
    1    -151.4287483034      2.37e-03  
    2    -151.4294192219      5.70e-04  
    3    -151.4294786951      1.07e-04  
    4    -151.4294819169      5.10e-05  
    5    -151.4294821510      8.24e-06  
    6    -151.4294821670      1.67e-06  
    7    -151.4294821683      5.02e-07  
    8    -151.4294821685      8.68e-08  
    9    -151.4294821685      9.81e-09  Convergence criterion met
 ---------------------------------------
 SCF time:   CPU 6.41s  wall 6.00s 
 SCF   energy =  -151.42948217
 Total energy =  -151.42948217
 
 --------------------------------------------------------------
             Orbital Energies (a.u.) and Symmetries
 --------------------------------------------------------------
 
 Alpha MOs, Restricted
 -- Occupied --                  
-19.289 -19.289  -1.240  -1.039  -0.614  -0.606  -0.504  -0.457
  1 B     1 A     2 A     2 B     3 A     3 B     4 A     5 A                  
 -0.369
  4 B                                                                          
 -- Virtual --                   
  0.091   0.162   0.210   0.900   0.925   0.965   0.981   1.089
  5 B     6 A     6 B     7 B     7 A     8 A     8 B     9 B                  
  1.141   1.171   1.181   1.488   1.744
  9 A    10 B    10 A    11 A    11 B                                          
 
 Beta MOs, Restricted
 -- Occupied --                  
-19.289 -19.289  -1.240  -1.039  -0.614  -0.606  -0.504  -0.457
  1 B     1 A     2 A     2 B     3 A     3 B     4 A     5 A                  
 -0.369
  4 B                                                                          
 -- Virtual --                   
  0.091   0.162   0.210   0.900   0.925   0.965   0.981   1.089
  5 B     6 A     6 B     7 B     7 A     8 A     8 B     9 B                  
  1.141   1.171   1.181   1.488   1.744
  9 A    10 B    10 A    11 A    11 B                                          
 --------------------------------------------------------------
 
          Ground-State Mulliken Net Atomic Charges

     Atom                 Charge (a.u.)
  ----------------------------------------
      1 O                    -0.403649
      2 O                    -0.403649
      3 H                     0.403649
      4 H                     0.403649
  ----------------------------------------
  Sum of atomic charges =     0.000000

 -----------------------------------------------------------------
                    Cartesian Multipole Moments
 -----------------------------------------------------------------
    Charge (ESU x 10^10)
                -0.0000
    Dipole Moment (Debye)
         X       0.0000      Y      -0.0000      Z       0.8546
       Tot       0.8546
    Quadrupole Moments (Debye-Ang)
        XX      -9.2476     XY       4.2917     YY     -10.4473
        XZ       0.0000     YZ      -0.0000     ZZ     -12.2842
    Octopole Moments (Debye-Ang^2)
       XXX       0.0000    XXY      -0.0000    XYY      -0.0000
       YYY      -0.0000    XXZ      -0.2769    XYZ       1.2590
       YYZ      -1.3599    XZZ      -0.0000    YZZ      -0.0000
       ZZZ      -5.6252
    Hexadecapole Moments (Debye-Ang^3)
      XXXX     -41.1285   XXXY       7.1561   XXYY      -8.3968
      XYYY       4.8301   YYYY     -12.0190   XXXZ       0.0000
      XXYZ      -0.0000   XYYZ       0.0000   YYYZ      -0.0000
      XXZZ      -9.9841   XYZZ       1.6434   YYZZ      -3.8483
      XZZZ       0.0000   YZZZ      -0.0000   ZZZZ     -10.8290
 -----------------------------------------------------------------
 Calculating analytic gradient of the SCF energy
 Gradient of SCF Energy
            1           2           3           4
    1   0.0002676  -0.0002676  -0.0001176   0.0001176
    2  -0.0001770   0.0001770  -0.0001185   0.0001185
    3  -0.0000671  -0.0000671   0.0000671   0.0000671
 Max gradient component =       2.676E-04
 RMS gradient           =       1.526E-04
 Gradient time:  CPU 0.96 s  wall 0.96 s

     Step 8	:
        Energy is -151.4294821685
                            Maximum         Tolerance       Converged?
         Gradient           3.80392926e-04	3.00000000e-04	false
         Displacement       9.72773311e-02	1.20000000e-03	false
         Energy change      3.00215946e-05	1.00000000e-06	false


	OPTIMIZATION CYCLE:	9

 Scaling Magnitude of Eigenvalues
 	Minimum: -25.00000000	 Maximum: 25.00000000
 6 Hessian Eigenvalues to form next step
   0.00185121   0.20000000   0.24000598   0.50000000   0.50472001
   0.56875314

 Minimum Search taking a RFO step
 Searching for Lambda that minimizes along all modes
	Value of Lambda   -0.00001572
	Norm  of Stepsize  0.09070013
	RMS   of Stepsize  0.03702817

	Performing Iterative Coordinate Back-Transformation

	  Starting from Previous Position

	  iter:	0	rms: 2.3972572229e-02	maxdev: 4.0613640062e-02
	  iter:	1	rms: 6.0537984884e-04	maxdev: 9.5427988781e-04
	  iter:	2	rms: 7.8778343453e-08	maxdev: 1.3146172988e-07	 Success!

	Finished Iterative Coordinate Back-Transformation
 ----------------------------------------------------------------
             Standard Nuclear Orientation (Angstroms)
    I     Atom           X                Y                Z
 ----------------------------------------------------------------
    1      O      -0.7255902001     0.1997307706     0.1625244586
    2      O       0.7255902029    -0.1997307715     0.1625244554
    3      H       1.1253854436     0.6825726847     0.3122230059
    4      H      -1.1253854463    -0.6825726838     0.3122230060
 ----------------------------------------------------------------
 Molecular Point Group                 C2    NOp =  2
 Largest Abelian Subgroup              C2    NOp =  2
 Nuclear Repulsion Energy =          35.75281577 hartrees
 There are        9 alpha and        9 beta electrons

                       Distance Matrix (Angstroms)
             O (  1)   O (  2)   H (  3)
   O (  2)  1.505156
   H (  3)  1.918764  0.980156
   H (  4)  0.980156  1.918764  2.632412
 
 Applying Cartesian multipole field
    Component          Value
    ---------          -----
     (2,0,0)        1.00000E-10
     (0,2,0)        2.00000E-10
     (0,0,2)       -3.00000E-10
 Nucleus-field energy     = 4.3724404586e-09 hartrees
 Requested basis set is 6-31G
 There are 10 shells and 22 basis functions
 A cutoff of  1.0D-12 yielded     55 shell pairs
 There are       277 function pairs
 Smallest overlap matrix eigenvalue = 4.32E-02
 Guess MOs from SCF MO coefficient file

 -----------------------------------------------------------------------
  General SCF calculation program by
  Eric Jon Sundstrom, Paul Horn, Yuezhi Mao, Dmitri Zuev, Alec White,
  David Stuck, Shaama M.S., Shane Yost, Joonho Lee, David Small,
  Daniel Levine, Susi Lehtola, Hugh Burton, Evgeny Epifanovsky,
  Bang C. Huynh
 -----------------------------------------------------------------------
 Exchange:     0.1670 Hartree-Fock + 1.0000 wB97X-V + LR-HF
 Correlation:  1.0000 wB97X-V
 Using SG-2 standard quadrature grid
 Nonlocal Correlation:  VV10 with C = 0.0100 and b = 6.00 and scale = 1.00000
 Grid used for NLC:  SG-1 standard quadrature
 A restricted SCF calculation will be
 performed using DIIS
 SCF converges when DIIS error is below 1.0e-08
 ---------------------------------------
  Cycle       Energy         DIIS error
 ---------------------------------------
    1    -151.4289888120      1.97e-03  
    2    -151.4294499968      4.72e-04  
    3    -151.4294910990      8.47e-05  
    4    -151.4294934508      1.55e-05  
    5    -151.4294934945      8.74e-06  
    6    -151.4294935014      1.58e-06  
    7    -151.4294935027      4.37e-07  
    8    -151.4294935028      7.02e-08  
    9    -151.4294935028      4.23e-08  
   10    -151.4294935028      8.74e-09  Convergence criterion met
 ---------------------------------------
 SCF time:   CPU 7.13s  wall 7.00s 
 SCF   energy =  -151.42949350
 Total energy =  -151.42949350
 
 --------------------------------------------------------------
             Orbital Energies (a.u.) and Symmetries
 --------------------------------------------------------------
 
 Alpha MOs, Restricted
 -- Occupied --                  
-19.289 -19.289  -1.239  -1.039  -0.613  -0.606  -0.504  -0.459
  1 B     1 A     2 A     2 B     3 A     3 B     4 A     5 A                  
 -0.368
  4 B                                                                          
 -- Virtual --                   
  0.092   0.162   0.211   0.899   0.927   0.964   0.982   1.088
  5 B     6 A     6 B     7 B     7 A     8 A     8 B     9 B                  
  1.140   1.172   1.182   1.487   1.746
  9 A    10 B    10 A    11 A    11 B                                          
 
 Beta MOs, Restricted
 -- Occupied --                  
-19.289 -19.289  -1.239  -1.039  -0.613  -0.606  -0.504  -0.459
  1 B     1 A     2 A     2 B     3 A     3 B     4 A     5 A                  
 -0.368
  4 B                                                                          
 -- Virtual --                   
  0.092   0.162   0.211   0.899   0.927   0.964   0.982   1.088
[...]
  1.139   1.172   1.183   1.486   1.747
  9 A    10 B    10 A    11 A    11 B                                          
 
 Beta MOs, Restricted
 -- Occupied --                  
-19.289 -19.289  -1.239  -1.039  -0.612  -0.607  -0.503  -0.461
  1 B     1 A     2 A     2 B     3 A     3 B     4 A     5 A                  
 -0.367
  4 B                                                                          
 -- Virtual --                   
  0.091   0.161   0.211   0.899   0.928   0.963   0.983   1.088
  5 B     6 A     6 B     7 B     7 A     8 A     8 B     9 B                  
  1.139   1.172   1.183   1.486   1.747
  9 A    10 B    10 A    11 A    11 B                                          
 --------------------------------------------------------------
 
          Ground-State Mulliken Net Atomic Charges

     Atom                 Charge (a.u.)
  ----------------------------------------
      1 O                    -0.404328
      2 O                    -0.404328
      3 H                     0.404328
      4 H                     0.404328
  ----------------------------------------
  Sum of atomic charges =     0.000000

 -----------------------------------------------------------------
                    Cartesian Multipole Moments
 -----------------------------------------------------------------
    Charge (ESU x 10^10)
                 0.0000
    Dipole Moment (Debye)
         X      -0.0000      Y       0.0000      Z       0.4772
       Tot       0.4772
    Quadrupole Moments (Debye-Ang)
        XX      -9.1655     XY       4.3717     YY     -10.4036
        XZ      -0.0000     YZ       0.0000     ZZ     -12.4786
    Octopole Moments (Debye-Ang^2)
       XXX      -0.0000    XXY       0.0000    XYY       0.0000
       YYY       0.0000    XXZ      -1.1023    XYZ       1.1728
       YYZ      -1.8446    XZZ       0.0000    YZZ       0.0000
       ZZZ      -7.1440
    Hexadecapole Moments (Debye-Ang^3)
      XXXX     -40.9275   XXXY       7.3604   XXYY      -8.3345
      XYYY       4.9819   YYYY     -12.1147   XXXZ       0.0000
      XXYZ       0.0000   XYYZ       0.0000   YYYZ       0.0000
      XXZZ     -10.2988   XYZZ       1.6241   YYZZ      -4.0676
      XZZZ       0.0000   YZZZ      -0.0000   ZZZZ     -11.7547
 -----------------------------------------------------------------
 Calculating analytic gradient of the SCF energy
 Gradient of SCF Energy
            1           2           3           4
    1   0.0002556  -0.0002556  -0.0000989   0.0000989
    2  -0.0000498   0.0000498  -0.0000277   0.0000277
    3  -0.0000118  -0.0000118   0.0000118   0.0000118
 Max gradient component =       2.556E-04
 RMS gradient           =       1.145E-04
 Gradient time:  CPU 0.96 s  wall 0.96 s

     Step 10	:
        Energy is -151.4294992386
                            Maximum         Tolerance       Converged?
         Gradient           3.28713212e-04	3.00000000e-04	false
         Displacement       7.66509302e-02	1.20000000e-03	false
         Energy change      5.73583446e-06	1.00000000e-06	false


	OPTIMIZATION CYCLE:	11

 Scaling Magnitude of Eigenvalues
 	Minimum: -25.00000000	 Maximum: 25.00000000
 6 Hessian Eigenvalues to form next step
   0.00064947   0.20000000   0.24206025   0.50000000   0.50350025
   0.52536485

 Minimum Search taking a RFO step
 Searching for Lambda that minimizes along all modes
	Value of Lambda   -0.00000215
	Norm  of Stepsize  0.05329453
	RMS   of Stepsize  0.02175740

	Performing Iterative Coordinate Back-Transformation

	  Starting from Previous Position

	  iter:	0	rms: 1.4096962443e-02	maxdev: 2.4212424423e-02
	  iter:	1	rms: 2.1230067948e-04	maxdev: 3.4356996682e-04
	  iter:	2	rms: 1.0619888151e-08	maxdev: 1.7897921370e-08	 Success!

	Finished Iterative Coordinate Back-Transformation
 ----------------------------------------------------------------
             Standard Nuclear Orientation (Angstroms)
    I     Atom           X                Y                Z
 ----------------------------------------------------------------
    1      O      -0.7256896963     0.2027723785     0.1964630118
    2      O       0.7256896522    -0.2027723603     0.1964630166
    3      H       1.1291790660     0.6868170448     0.2782844484
    4      H      -1.1291790219    -0.6868170630     0.2782844491
 ----------------------------------------------------------------
 Molecular Point Group                 C2    NOp =  2
 Largest Abelian Subgroup              C2    NOp =  2
 Nuclear Repulsion Energy =          35.72419490 hartrees
 There are        9 alpha and        9 beta electrons

                       Distance Matrix (Angstroms)
             O (  1)   O (  2)   H (  3)
   O (  2)  1.506973
   H (  3)  1.918732  0.980239
   H (  4)  0.980239  1.918732  2.643303
 
 Applying Cartesian multipole field
    Component          Value
    ---------          -----
     (2,0,0)        1.00000E-10
     (0,2,0)        2.00000E-10
     (0,0,2)       -3.00000E-10
 Nucleus-field energy     = 4.2357677827e-09 hartrees
 Requested basis set is 6-31G
 There are 10 shells and 22 basis functions
 A cutoff of  1.0D-12 yielded     55 shell pairs
 There are       277 function pairs
 Smallest overlap matrix eigenvalue = 4.33E-02
 Guess MOs from SCF MO coefficient file

 -----------------------------------------------------------------------
  General SCF calculation program by
  Eric Jon Sundstrom, Paul Horn, Yuezhi Mao, Dmitri Zuev, Alec White,
  David Stuck, Shaama M.S., Shane Yost, Joonho Lee, David Small,
  Daniel Levine, Susi Lehtola, Hugh Burton, Evgeny Epifanovsky,
  Bang C. Huynh
 -----------------------------------------------------------------------
 Exchange:     0.1670 Hartree-Fock + 1.0000 wB97X-V + LR-HF
 Correlation:  1.0000 wB97X-V
 Using SG-2 standard quadrature grid
 Nonlocal Correlation:  VV10 with C = 0.0100 and b = 6.00 and scale = 1.00000
 Grid used for NLC:  SG-1 standard quadrature
 A restricted SCF calculation will be
 performed using DIIS
 SCF converges when DIIS error is below 1.0e-08
 ---------------------------------------
  Cycle       Energy         DIIS error
 ---------------------------------------
    1    -151.4293262820      1.16e-03  
    2    -151.4294855292      2.78e-04  
    3    -151.4294997684      5.04e-05  
    4    -151.4295005969      1.27e-05  
    5    -151.4295006183      5.38e-06  
    6    -151.4295006225      1.12e-06  
    7    -151.4295006232      3.26e-07  
    8    -151.4295006232      2.93e-07  
    9    -151.4295006232      2.52e-08  
   10    -151.4295006232      2.83e-09  Convergence criterion met
 ---------------------------------------
 SCF time:   CPU 7.21s  wall 7.00s 
 SCF   energy =  -151.42950062
 Total energy =  -151.42950062
 
 --------------------------------------------------------------
             Orbital Energies (a.u.) and Symmetries
 --------------------------------------------------------------
 
 Alpha MOs, Restricted
 -- Occupied --                  
-19.289 -19.289  -1.239  -1.039  -0.611  -0.607  -0.502  -0.462
  1 B     1 A     2 A     2 B     3 A     3 B     4 A     5 A                  
 -0.367
  4 B                                                                          
 -- Virtual --                   
  0.091   0.161   0.211   0.898   0.928   0.963   0.983   1.088
  5 B     6 A     6 B     7 B     7 A     8 A     8 B     9 B                  
  1.139   1.173   1.184   1.485   1.747
  9 A    10 B    10 A    11 A    11 B                                          
 
 Beta MOs, Restricted
 -- Occupied --                  
-19.289 -19.289  -1.239  -1.039  -0.611  -0.607  -0.502  -0.462
  1 B     1 A     2 A     2 B     3 A     3 B     4 A     5 A                  
 -0.367
  4 B                                                                          
 -- Virtual --                   
  0.091   0.161   0.211   0.898   0.928   0.963   0.983   1.088
  5 B     6 A     6 B     7 B     7 A     8 A     8 B     9 B                  
  1.139   1.173   1.184   1.485   1.747
  9 A    10 B    10 A    11 A    11 B                                          
 --------------------------------------------------------------
 
          Ground-State Mulliken Net Atomic Charges

     Atom                 Charge (a.u.)
  ----------------------------------------
      1 O                    -0.404447
      2 O                    -0.404447
      3 H                     0.404447
      4 H                     0.404447
  ----------------------------------------
  Sum of atomic charges =     0.000000

 -----------------------------------------------------------------
                    Cartesian Multipole Moments
 -----------------------------------------------------------------
    Charge (ESU x 10^10)
                -0.0000
    Dipole Moment (Debye)
         X       0.0000      Y      -0.0000      Z       0.3634
       Tot       0.3634
    Quadrupole Moments (Debye-Ang)
        XX      -9.1482     XY       4.3874     YY     -10.3951
        XZ       0.0000     YZ      -0.0000     ZZ     -12.5361
    Octopole Moments (Debye-Ang^2)
       XXX       0.0000    XXY      -0.0000    XYY       0.0000
       YYY      -0.0000    XXZ      -1.3538    XYZ       1.1445
       YYZ      -1.9917    XZZ       0.0000    YZZ      -0.0000
       ZZZ      -7.6006
    Hexadecapole Moments (Debye-Ang^3)
      XXXX     -40.9112   XXXY       7.4026   XXYY      -8.3259
      XYYY       5.0116   YYYY     -12.1331   XXXZ       0.0000
      XXYZ      -0.0000   XYYZ       0.0000   YYYZ      -0.0000
      XXZZ     -10.4088   XYZZ       1.6147   YYZZ      -4.1359
      XZZZ       0.0000   YZZZ      -0.0000   ZZZZ     -12.0860
 -----------------------------------------------------------------
 Calculating analytic gradient of the SCF energy
 Gradient of SCF Energy
            1           2           3           4
    1   0.0000099  -0.0000099  -0.0000375   0.0000375
    2   0.0000309  -0.0000309   0.0000161  -0.0000161
    3  -0.0000073  -0.0000073   0.0000073   0.0000073
 Max gradient component =       3.746E-05
 RMS gradient           =       2.170E-05
 Gradient time:  CPU 0.96 s  wall 0.96 s

     Step 11	:
        Energy is -151.4295006232
                            Maximum         Tolerance       Converged?
         Gradient           8.76958227e-05	3.00000000e-04	true
         Displacement       4.62775320e-02	1.20000000e-03	false
         Energy change      1.38462920e-06	1.00000000e-06	false


	OPTIMIZATION CYCLE:	12

 Scaling Magnitude of Eigenvalues
 	Minimum: -25.00000000	 Maximum: 25.00000000
 6 Hessian Eigenvalues to form next step
   0.00043347   0.20000000   0.24257194   0.50000000   0.50455446
   0.52729041

 Minimum Search taking a RFO step
 Searching for Lambda that minimizes along all modes
	Value of Lambda   -0.00000039
	Norm  of Stepsize  0.02923051
	RMS   of Stepsize  0.01193331

	Performing Iterative Coordinate Back-Transformation

	  Starting from Previous Position

	  iter:	0	rms: 7.7305319001e-03	maxdev: 1.3326546770e-02
	  iter:	1	rms: 6.4078723341e-05	maxdev: 1.0418390390e-04
	  iter:	2	rms: 9.7509004897e-10	maxdev: 1.6497933829e-09	 Success!

	Finished Iterative Coordinate Back-Transformation
 ----------------------------------------------------------------
             Standard Nuclear Orientation (Angstroms)
    I     Atom           X                Y                Z
 ----------------------------------------------------------------
    1      O      -0.7257133122     0.2031366014     0.2035194485
    2      O       0.7257133163    -0.2031366022     0.2035194481
    3      H       1.1297497163     0.6873940001     0.2712280144
    4      H      -1.1297497204    -0.6873939993     0.2712280148
 ----------------------------------------------------------------
 Molecular Point Group                 C2    NOp =  2
 Largest Abelian Subgroup              C2    NOp =  2
 Nuclear Repulsion Energy =          35.72026022 hartrees
 There are        9 alpha and        9 beta electrons

                       Distance Matrix (Angstroms)
             O (  1)   O (  2)   H (  3)
   O (  2)  1.507215
   H (  3)  1.918810  0.980242
   H (  4)  0.980242  1.918810  2.644878
 
 Applying Cartesian multipole field
    Component          Value
    ---------          -----
     (2,0,0)        1.00000E-10
     (0,2,0)        2.00000E-10
     (0,0,2)       -3.00000E-10
 Nucleus-field energy     = 4.1996349020e-09 hartrees
 Requested basis set is 6-31G
 There are 10 shells and 22 basis functions
 A cutoff of  1.0D-12 yielded     55 shell pairs
 There are       277 function pairs
 Smallest overlap matrix eigenvalue = 4.33E-02
 Guess MOs from SCF MO coefficient file

 -----------------------------------------------------------------------
  General SCF calculation program by
  Eric Jon Sundstrom, Paul Horn, Yuezhi Mao, Dmitri Zuev, Alec White,
  David Stuck, Shaama M.S., Shane Yost, Joonho Lee, David Small,
  Daniel Levine, Susi Lehtola, Hugh Burton, Evgeny Epifanovsky,
  Bang C. Huynh
 -----------------------------------------------------------------------
 Exchange:     0.1670 Hartree-Fock + 1.0000 wB97X-V + LR-HF
 Correlation:  1.0000 wB97X-V
 Using SG-2 standard quadrature grid
 Nonlocal Correlation:  VV10 with C = 0.0100 and b = 6.00 and scale = 1.00000
 Grid used for NLC:  SG-1 standard quadrature
 A restricted SCF calculation will be
 performed using DIIS
 SCF converges when DIIS error is below 1.0e-08
 ---------------------------------------
  Cycle       Energy         DIIS error
 ---------------------------------------
    1    -151.4294484480      6.34e-04  
    2    -151.4294963481      1.52e-04  
    3    -151.4295006331      2.74e-05  
    4    -151.4295008847      4.02e-06  
    5    -151.4295008898      1.38e-06  
    6    -151.4295008901      6.29e-07  
    7    -151.4295008902      1.27e-07  
    8    -151.4295008903      1.70e-08  
    9    -151.4295008903      2.61e-09  Convergence criterion met
 ---------------------------------------
 SCF time:   CPU 6.42s  wall 6.00s 
 SCF   energy =  -151.42950089
 Total energy =  -151.42950089
 
 --------------------------------------------------------------
             Orbital Energies (a.u.) and Symmetries
 --------------------------------------------------------------
 
 Alpha MOs, Restricted
 -- Occupied --                  
-19.289 -19.289  -1.238  -1.039  -0.611  -0.607  -0.502  -0.463
  1 B     1 A     2 A     2 B     3 A     3 B     4 A     5 A                  
 -0.367
  4 B                                                                          
 -- Virtual --                   
  0.091   0.161   0.211   0.898   0.928   0.963   0.983   1.088
  5 B     6 A     6 B     7 B     7 A     8 A     8 B     9 B                  
  1.139   1.173   1.184   1.485   1.748
  9 A    10 B    10 A    11 A    11 B                                          
 
 Beta MOs, Restricted
 -- Occupied --                  
-19.289 -19.289  -1.238  -1.039  -0.611  -0.607  -0.502  -0.463
  1 B     1 A     2 A     2 B     3 A     3 B     4 A     5 A                  
 -0.367
  4 B                                                                          
 -- Virtual --                   
  0.091   0.161   0.211   0.898   0.928   0.963   0.983   1.088
  5 B     6 A     6 B     7 B     7 A     8 A     8 B     9 B                  
  1.139   1.173   1.184   1.485   1.748
  9 A    10 B    10 A    11 A    11 B                                          
 --------------------------------------------------------------
 
          Ground-State Mulliken Net Atomic Charges

     Atom                 Charge (a.u.)
  ----------------------------------------
      1 O                    -0.404498
      2 O                    -0.404499
      3 H                     0.404499
      4 H                     0.404498
  ----------------------------------------
  Sum of atomic charges =     0.000000

 -----------------------------------------------------------------
                    Cartesian Multipole Moments
 -----------------------------------------------------------------
    Charge (ESU x 10^10)
                 0.0000
    Dipole Moment (Debye)
         X      -0.0000      Y       0.0000      Z       0.3007
       Tot       0.3007
    Quadrupole Moments (Debye-Ang)
        XX      -9.1406     XY       4.3942     YY     -10.3914
        XZ      -0.0000     YZ       0.0000     ZZ     -12.5672
    Octopole Moments (Debye-Ang^2)
       XXX      -0.0000    XXY       0.0000    XYY       0.0000
       YYY       0.0000    XXZ      -1.4928    XYZ       1.1285
       YYZ      -2.0729    XZZ       0.0000    YZZ       0.0000
       ZZZ      -7.8515
    Hexadecapole Moments (Debye-Ang^3)
      XXXX     -40.9004   XXXY       7.4203   XXYY      -8.3215
      XYYY       5.0237   YYYY     -12.1402   XXXZ      -0.0000
      XXYZ       0.0000   XYYZ       0.0000   YYYZ       0.0000
      XXZZ     -10.4701   XYZZ       1.6085   YYZZ      -4.1736
      XZZZ       0.0000   YZZZ       0.0000   ZZZZ     -12.2783
 -----------------------------------------------------------------
 Calculating analytic gradient of the SCF energy
 Gradient of SCF Energy
            1           2           3           4
    1  -0.0000639   0.0000639  -0.0000114   0.0000114
    2   0.0000326  -0.0000326   0.0000190  -0.0000190
    3  -0.0000041  -0.0000041   0.0000041   0.0000041
 Max gradient component =       6.394E-05
 RMS gradient           =       3.075E-05
 Gradient time:  CPU 0.96 s  wall 0.96 s

     Step 12	:
        Energy is -151.4295008903
                            Maximum         Tolerance       Converged?
         Gradient           6.18425536e-05	3.00000000e-04	true
         Displacement       2.54983199e-02	1.20000000e-03	false
         Energy change      2.67009852e-07	1.00000000e-06	true

	 Optimization Converged in 12 cycles

 *****************************************************
             End of BFGS Algorithm
 *****************************************************
		----------------------------------
		   Verification of Optimization
		----------------------------------

 Eigenvalues of Hessian in Optimization Verification
   0.00025495   0.20000000   0.23355744   0.50000000   0.50443802
   0.56922653

 Found a minimum
		---------------------------------
		       End of Verification
		---------------------------------

 Final energy is -151.429500890255

	******************************
	**  OPTIMIZATION CONVERGED  **
	******************************
 ----------------------------------------------------------------
             Standard Nuclear Orientation (Angstroms)
    I     Atom           X                Y                Z
 ----------------------------------------------------------------
    1      O      -0.7257133122     0.2031366014     0.2035194485
    2      O       0.7257133163    -0.2031366022     0.2035194481
    3      H       1.1297497163     0.6873940001     0.2712280144
    4      H      -1.1297497204    -0.6873939993     0.2712280148
 ----------------------------------------------------------------
 Molecular Point Group                 C2    NOp =  2
 Largest Abelian Subgroup              C2    NOp =  2
 Nuclear Repulsion Energy =          35.72026022 hartrees
 There are        9 alpha and        9 beta electrons

Z-matrix Print:
$molecule
0 1
O 
H  1 0.980242
O  1 1.507215 2 98.745211
H  3 0.980242 1 98.745212 2 -171.985146 0
$end

 -----------------------------------------------------------------------
                  END OF GEOMETRY OPTIMIZER USING LIBOPT3               
 -----------------------------------------------------------------------
 Total job time:  105.45s(wall), 105.54s(cpu) 
 Wed Apr 24 15:10:57 2024

        *************************************************************
        *                                                           *
        *  Thank you very much for using Q-Chem.  Have a nice day.  *
        *                                                           *
        *************************************************************


