Jobname.Temp
FOPT      R                             6-31G               
Number of atoms                            I                4
Charge                                     I                0
Multiplicity                               I                1
Number of electrons                        I               18
Number of alpha electrons                  I                9
Number of beta electrons                   I                9
Atomic numbers                             I   N=           4
           8           8           1           1
Current cartesian coordinates              R   N=          12
  1.25599323E+00  1.97360227E-01 -1.26265692E-16 -1.25599701E+00  1.97356509E-01
 -2.06734048E-16  1.88040319E+00 -1.57886260E+00  1.39223344E-15 -1.88037297E+00
 -1.57887129E+00  1.27176447E-15
Nuclear charges                            R   N=           4
  8.00000000E+00  8.00000000E+00  1.00000000E+00  1.00000000E+00
Number of basis functions                  I               22
Number of contracted shells                I               10
Number of primitive shells                 I               28
Highest angular momentum                   I                1
Largest degree of contraction              I                6
Shell types                                I   N=          10
           0          -1          -1           0          -1          -1
           0           0           0           0
Number of primitives per shell             I   N=          10
           6           3           1           6           3           1
           3           1           3           1
Shell to atom map                          I   N=          10
           1           1           1           2           2           2
           3           3           4           4
Primitive exponents                        R   N=          28
  5.48467170E+03  8.25234950E+02  1.88046960E+02  5.29645000E+01  1.68975700E+01
  5.79963530E+00  1.55396160E+01  3.59993360E+00  1.01376180E+00  2.70005800E-01
  5.48467170E+03  8.25234950E+02  1.88046960E+02  5.29645000E+01  1.68975700E+01
  5.79963530E+00  1.55396160E+01  3.59993360E+00  1.01376180E+00  2.70005800E-01
  1.87311370E+01  2.82539370E+00  6.40121700E-01  1.61277800E-01  1.87311370E+01
  2.82539370E+00  6.40121700E-01  1.61277800E-01
Contraction coefficients                   R   N=          28
  1.83109981E-03  1.39500985E-02  6.84450927E-02  2.32714275E-01  4.70192950E-01
  3.58520862E-01 -1.10777504E-01 -1.48026305E-01  1.13076704E+00  1.00000000E+00
  1.83109981E-03  1.39500985E-02  6.84450927E-02  2.32714275E-01  4.70192950E-01
  3.58520862E-01 -1.10777504E-01 -1.48026305E-01  1.13076704E+00  1.00000000E+00
  3.34945995E-02  2.34726947E-01  8.13757318E-01  1.00000000E+00  3.34945995E-02
  2.34726947E-01  8.13757318E-01  1.00000000E+00
P(S=P) Contraction coefficients            R   N=          28
  0.00000000E+00  0.00000000E+00  0.00000000E+00  0.00000000E+00  0.00000000E+00
  0.00000000E+00  7.08742995E-02  3.39752798E-01  7.27158595E-01  1.00000000E+00
  0.00000000E+00  0.00000000E+00  0.00000000E+00  0.00000000E+00  0.00000000E+00
  0.00000000E+00  7.08742995E-02  3.39752798E-01  7.27158595E-01  1.00000000E+00
  0.00000000E+00  0.00000000E+00  0.00000000E+00  0.00000000E+00  0.00000000E+00
  0.00000000E+00  0.00000000E+00  0.00000000E+00
Coordinates of each shell                  R   N=          30
  1.25599323E+00  1.97360227E-01 -1.26265692E-16  1.25599323E+00  1.97360227E-01
 -1.26265692E-16  1.25599323E+00  1.97360227E-01 -1.26265692E-16 -1.25599701E+00
  1.97356509E-01 -2.06734048E-16 -1.25599701E+00  1.97356509E-01 -2.06734048E-16
 -1.25599701E+00  1.97356509E-01 -2.06734048E-16  1.88040319E+00 -1.57886260E+00
  1.39223344E-15  1.88040319E+00 -1.57886260E+00  1.39223344E-15 -1.88037297E+00
 -1.57887129E+00  1.27176447E-15 -1.88037297E+00 -1.57887129E+00  1.27176447E-15
Current cartesian coordinates              R   N=          12
  1.25599323E+00  1.97360227E-01 -1.26265692E-16 -1.25599701E+00  1.97356509E-01
 -2.06734048E-16  1.88040319E+00 -1.57886260E+00  1.39223344E-15 -1.88037297E+00
 -1.57887129E+00  1.27176447E-15
Orthonormalization Matrix                  R   N=         253
 -3.46877502E-03 -4.83618448E-02  3.19947339E-17  5.62072181E-03  4.67015311E-03
 -5.62221316E-03  1.49164667E-16  2.01350000E-02 -1.67305166E-05  2.34690471E-03
 -6.86644146E-01 -9.55967215E-03 -2.95290108E-17 -2.15717795E-02  1.13076478E+00
 -8.57037516E-17  3.54510922E-02 -4.38485139E-01 -1.29783441E-01 -2.23710569E-17
 -4.88652987E-16 -1.76684883E-03  7.62354094E-17  3.58695873E-16 -2.44806882E-16
  5.85917655E-17  1.26854194E-01  1.25953963E-01  3.54509813E-02 -9.17154278E-04
 -5.89517791E-17  3.09621573E-17 -7.75265474E-04 -5.86455316E-02  1.97262495E-17
  6.65030249E-02  1.46014233E-17  1.06735612E-02  1.32567619E-02 -3.29052948E-02
 -5.86455316E-02  1.06734667E-02 -3.54195481E-01 -1.53870444E-01 -3.27053480E-03
  1.06734667E-02  1.94729831E-16 -1.12195598E-16 -2.87366566E-18 -1.41372014E-16
  2.11692429E-02  1.54208373E-03  3.36092206E-02  3.29917407E-17  4.86860159E-03
  1.66898993E-03 -1.07612400E-01  1.54892863E+00  1.51492641E-02 -2.15717795E-02
  7.98503846E-02  3.92262859E-01 -1.91376959E-16 -3.14712413E-01 -2.78497364E-17
 -2.34677937E-03 -7.49279516E-17 -8.74412851E-17 -1.01394347E+00 -1.25956001E-01
  1.21685076E-01  1.21196326E+00 -2.95290108E-17 -3.78925897E-17 -1.09279910E-16
 -1.01394139E+00  1.13345141E+00  5.34240968E-17  2.81719360E-02 -7.96196296E-18
 -2.79821507E-02  1.56498862E-02  5.28768071E-02 -7.15785172E-03 -8.26985454E-03
 -1.07612400E-01 -4.83620179E-02  5.95672765E-02  2.94328625E-02 -4.28790667E-02
 -1.76674661E-03 -3.82163166E-16  1.40050053E-01  7.15781619E-03  3.29049349E-02
  1.00347454E-02 -3.46871950E-03 -5.64795017E-04 -1.65074314E-17  3.58695873E-16
  3.11848709E+00  7.95329950E-03  3.54510922E-02 -7.75265474E-04  4.67015311E-03
  5.95672765E-02  2.25060449E-16 -3.54776470E-16 -7.15131125E-02 -1.57841137E-16
  2.11521033E-02  7.95329950E-03 -9.86478173E-01 -3.12220343E-01  1.13076461E+00
  1.81609540E-02 -6.64969029E-02  4.71771292E-01 -2.12346040E-17 -4.70175711E-01
 -2.34677937E-03  2.22171692E-16  1.45764690E-16  1.06331501E-16  5.90794659E-16
 -1.15715792E-01 -3.46309248E-01 -6.86644146E-01  7.62354094E-17 -1.67576860E-05
 -4.88652987E-16  3.09621573E-17  2.81719360E-02 -2.74576093E-01 -6.35103595E-01
  1.21379551E-02  2.16985155E-16 -5.64768957E-04  2.11521033E-02  1.02278724E+00
  5.10446226E-17  3.23208695E-02  9.86477639E-01  1.97944589E-16 -5.71696604E-02
  9.55922282E-03  1.06036857E-16 -1.67576860E-05 -3.27053480E-03  6.74576996E-04
 -8.26985454E-03 -9.55967215E-03  7.63734884E-01  1.03244730E-16 -1.30574816E-16
  4.86864742E-03 -1.76684883E-03 -2.45404782E-02  1.21684092E-01 -8.75333370E-17
  1.63675282E+00 -2.45404782E-02  2.96834716E-03 -1.21381407E-02  1.64345703E-03
 -1.68097680E-03  2.16220416E-01  2.46177200E-01  1.58110673E-02 -4.70175711E-01
  2.22171692E-16  1.32566267E-02  1.45729059E-16 -3.14712413E-01 -1.65074314E-17
  1.28404728E-16 -2.45399100E-02  1.13345164E+00 -3.29052948E-02 -2.01346514E-02
  2.11520342E-02 -1.57841137E-16  7.95352455E-03  5.14055117E-03  1.11941017E+00
 -2.79816662E-02 -3.46309248E-01 -2.03934121E-02 -7.75281891E-04 -3.27054294E-03
 -9.17154278E-04  5.28764820E-02  3.29917407E-17  2.34690471E-03 -8.59672017E-03
 -1.07612441E-01  1.03244730E-16 -2.12346040E-17 -1.76674661E-03  7.15781619E-03
 -6.74546800E-04 -2.23710569E-17 -1.81623925E-02 -4.67026079E-03 -1.51488547E-02
  1.25953963E-01 -1.68097680E-03  2.16218860E-01  1.46014233E-17 -1.07612441E-01
 -1.61195665E-17 -3.54195481E-01 -2.89982280E-16 -9.20248529E-02 -8.57037516E-17
  1.40048620E-01  5.62072181E-03 -5.17092101E-17 -2.94336931E-02  2.98883579E-18
  1.49164667E-16 -8.75333370E-17 -5.89517791E-17  3.19947339E-17  5.86459666E-02
 -1.51488547E-02 -7.15785172E-03  9.29585910E-17 -1.67305166E-05  1.21379551E-02
  8.26987515E-03 -5.64795017E-04  1.56514000E-02  1.58110673E-02  3.23207677E-02
 -2.15717374E-02  1.54892801E+00 -1.01394139E+00 -5.64768957E-04 -8.95042318E-18
 -1.91376959E-16 -1.15041552E-16 -4.67026079E-03  1.00347454E-02  4.28807383E-02
  1.64353739E-03 -2.15717374E-02  1.21684092E-01  3.29049349E-02 -4.83618448E-02
 -6.74546800E-04 -7.75281891E-04  1.02278723E+00
Overlap Matrix                             R   N=         253
  1.00000000E+00  2.33689906E-01  1.00000000E+00 -2.95806073E-17  2.08852093E-17
  1.00000000E+00  3.81413507E-17 -6.75913896E-17  0.00000000E+00  1.00000000E+00
 -1.26848832E-32 -1.20066427E-31  0.00000000E+00  8.19030613E-48  1.00000000E+00
  1.67279760E-01  7.63640773E-01  0.00000000E+00 -3.19529062E-17 -5.67597635E-32
  1.00000000E+00 -2.89790443E-18  0.00000000E+00  5.01520641E-01  0.00000000E+00
  0.00000000E+00  0.00000000E+00  1.00000000E+00  1.68068092E-18 -2.35799331E-17
  0.00000000E+00  5.01520641E-01  1.63722120E-48  0.00000000E+00  0.00000000E+00
  1.00000000E+00  6.33632250E-34 -4.18863754E-32  0.00000000E+00  1.63722120E-48
  5.01520641E-01  0.00000000E+00  0.00000000E+00  0.00000000E+00  1.00000000E+00
  1.45336654E-09  1.52872763E-03 -4.38681598E-03 -6.49354013E-09 -6.99570364E-19
  3.21136381E-02 -8.11911591E-02 -1.20182395E-07 -1.29476433E-17  1.00000000E+00
  1.52872763E-03  5.02803802E-02 -8.66097959E-02 -1.28203277E-07 -1.38117593E-17
  2.02928150E-01 -4.12906821E-01 -6.11201159E-07 -6.58467044E-17  2.33689906E-01
  1.00000000E+00  4.38681598E-03  8.66097959E-02 -1.35801688E-01 -2.36136455E-07
 -2.54397543E-17  1.65695446E-01 -2.21118979E-01 -5.15214076E-07 -5.55057012E-17
 -1.37033628E-17  4.23759460E-17  1.00000000E+00  6.49354013E-09  1.28203277E-07
 -2.36136455E-07  2.37241108E-02 -3.76569398E-23  2.45269013E-07 -5.15214076E-07
  1.26942217E-01 -8.21617547E-23  8.26903761E-18 -6.32626689E-17  0.00000000E+00
  1.00000000E+00  6.99570364E-19  1.38117593E-17 -2.54397543E-17 -3.76569398E-23
  2.37241108E-02  2.64236347E-17 -5.55057012E-17 -8.21617547E-23  1.26942217E-01
  5.54024690E-34 -9.60400412E-34  0.00000000E+00 -1.70293629E-49  1.00000000E+00
  3.21136381E-02  2.02928150E-01 -1.65695446E-01 -2.45269013E-07 -2.64236347E-17
  4.26611671E-01 -5.56848720E-01 -8.24269704E-07 -8.88012770E-17  1.67279760E-01
  7.63640773E-01  0.00000000E+00 -1.30145740E-17 -3.75089693E-33  1.00000000E+00
  8.11911591E-02  4.12906821E-01 -2.21118979E-01 -5.15214076E-07 -5.55057012E-17
  5.56848720E-01 -3.00233181E-01 -1.07590476E-06 -1.15910747E-16  2.89790443E-18
  0.00000000E+00  5.01520641E-01  0.00000000E+00  0.00000000E+00  0.00000000E+00
  1.00000000E+00  1.20182395E-07  6.11201159E-07 -5.15214076E-07  1.26942217E-01
 -8.21617547E-23  8.24269704E-07 -1.07590476E-06  4.26611671E-01 -1.71575715E-22
  4.10334637E-18  1.55290581E-18  0.00000000E+00  5.01520641E-01 -8.33560184E-50
  0.00000000E+00  0.00000000E+00  1.00000000E+00  1.29476433E-17  6.58467044E-17
 -5.55057012E-17 -8.21617547E-23  1.26942217E-01  8.88012770E-17 -1.15910747E-16
 -1.71575715E-22  4.26611671E-01  9.74068121E-36 -5.67420170E-33  0.00000000E+00
 -8.33560184E-50  5.01520641E-01  0.00000000E+00  0.00000000E+00  0.00000000E+00
  1.00000000E+00  2.97577133E-02  2.22898159E-01  8.78100432E-02 -2.49788140E-01
 -1.88762562E-16  4.05495586E-01  1.90989312E-01 -5.43296223E-01 -4.10563877E-16
  1.10338223E-04  5.35022618E-03  8.80276640E-03 -4.98521902E-03 -2.64297725E-18
  6.44415997E-02  1.50607648E-01 -8.52927452E-02 -4.52190334E-17  1.00000000E+00
  6.61107510E-02  3.66456366E-01  4.90880216E-02 -1.39637849E-01 -1.05523017E-16
  6.65533053E-01  1.61498184E-01 -4.59404522E-01 -3.47167703E-16  1.48324666E-02
  9.94982526E-02  6.52566318E-02 -3.69564052E-02 -1.95929081E-17  2.56397973E-01
  3.12517433E-01 -1.76986164E-01 -9.38314651E-17  6.58292049E-01  1.00000000E+00
  1.10349242E-04  5.35058042E-03 -8.80326477E-03 -4.98559012E-03 -5.45091047E-18
  6.44437113E-02 -1.50610976E-01 -8.52961503E-02 -9.32571004E-17  2.97581559E-02
  2.22900415E-01 -8.78062456E-02 -2.49791638E-01 -2.16770914E-16  4.05497559E-01
 -1.90979847E-01 -5.43300407E-01 -4.71479856E-16  7.32666632E-03  1.03006537E-01
  1.00000000E+00  1.48328637E-02  9.95005781E-02 -6.52574773E-02 -3.69575427E-02
 -4.04069030E-17  2.56402355E-01 -3.12519386E-01 -1.76990424E-01 -1.93509480E-16
  6.61110107E-02  3.66457620E-01 -4.90855199E-02 -1.39638728E-01 -1.21179455E-16
  6.65534721E-01 -1.61489794E-01 -4.59406958E-01 -3.98676540E-16  1.03006537E-01
  3.19655563E-01  6.58292049E-01  1.00000000E+00
Kinetic Energy Matrix                      R   N=         253
  2.95401398E+01 -2.18540273E+00  1.71121096E+00  0.00000000E+00  0.00000000E+00
  4.25187706E+00  0.00000000E+00  0.00000000E+00  0.00000000E+00  4.25187706E+00
  0.00000000E+00  0.00000000E+00  0.00000000E+00  0.00000000E+00  4.25187706E+00
  1.31282499E-01  4.80047821E-01  0.00000000E+00  0.00000000E+00  0.00000000E+00
  4.05008700E-01  0.00000000E+00  0.00000000E+00  5.47243224E-01  0.00000000E+00
  0.00000000E+00  0.00000000E+00  6.75014500E-01  0.00000000E+00  0.00000000E+00
  0.00000000E+00  5.47243224E-01  0.00000000E+00  0.00000000E+00  0.00000000E+00
  6.75014500E-01  0.00000000E+00  0.00000000E+00  0.00000000E+00  0.00000000E+00
  5.47243224E-01  0.00000000E+00  0.00000000E+00  0.00000000E+00  6.75014500E-01
 -1.41641751E-07 -1.13649422E-02  2.49964722E-02  3.70007759E-08  3.98621487E-18
 -2.52694966E-03 -3.60640536E-02 -5.33834518E-08 -5.75117425E-18  2.95401398E+01
 -1.13649422E-02 -7.86592251E-02  6.61358734E-02  9.78969598E-08  1.05467604E-17
  1.50087870E-02 -2.04552121E-01 -3.02786215E-07 -3.26201514E-17 -2.18540273E+00
  1.71121096E+00 -2.49964722E-02 -6.61358734E-02 -1.35229373E-02  1.52987732E-08
  1.64818698E-18  8.09982116E-02 -2.59584805E-01 -4.76102842E-07 -5.12921198E-17
  0.00000000E+00  0.00000000E+00  4.25187706E+00 -3.70007759E-08 -9.78969598E-08
  1.52987732E-08 -2.38582708E-02  2.43971216E-24  1.19896786E-07 -4.76102842E-07
  6.20541651E-02 -7.59246433E-23  0.00000000E+00  0.00000000E+00  0.00000000E+00
  4.25187706E+00 -3.98621487E-18 -1.05467604E-17  1.64818698E-18  2.43971216E-24
 -2.38582708E-02  1.29168738E-17 -5.12921198E-17 -7.59246433E-23  6.20541651E-02
  0.00000000E+00  0.00000000E+00  0.00000000E+00  0.00000000E+00  4.25187706E+00
 -2.52694966E-03  1.50087870E-02 -8.09982116E-02 -1.19896786E-07 -1.29168738E-17
  7.46552754E-02 -2.47798604E-01 -3.66801385E-07 -3.95167155E-17  1.31282499E-01
  4.80047821E-01  0.00000000E+00  0.00000000E+00  0.00000000E+00  4.05008700E-01
  3.60640536E-02  2.04552121E-01 -2.59584805E-01 -4.76102842E-07 -5.12921198E-17
  2.47798604E-01 -3.29856589E-01 -7.69279931E-07 -8.28770485E-17  0.00000000E+00
  0.00000000E+00  5.47243224E-01  0.00000000E+00  0.00000000E+00  0.00000000E+00
  6.75014500E-01  5.33834518E-08  3.02786215E-07 -4.76102842E-07  6.20541651E-02
 -7.59246433E-23  3.66801385E-07 -7.69279931E-07  1.89842901E-01 -1.22677916E-22
  0.00000000E+00  0.00000000E+00  0.00000000E+00  5.47243224E-01  0.00000000E+00
  0.00000000E+00  0.00000000E+00  6.75014500E-01  5.75117425E-18  3.26201514E-17
 -5.12921198E-17 -7.59246433E-23  6.20541651E-02  3.95167155E-17 -8.28770485E-17
 -1.22677916E-22  1.89842901E-01  0.00000000E+00  0.00000000E+00  0.00000000E+00
  0.00000000E+00  5.47243224E-01  0.00000000E+00  0.00000000E+00  0.00000000E+00
  6.75014500E-01 -2.37576750E-02 -4.01726237E-04  6.00119965E-02 -1.70712648E-01
 -1.29005952E-16  1.27091845E-01  1.35297694E-01 -3.84873507E-01 -2.90845311E-16
 -8.04107103E-04 -1.49928198E-02 -1.90750909E-02  1.08026843E-02  5.72718041E-18
 -2.56641183E-02 -2.64621115E-03  1.49861323E-03  7.94508857E-19  1.39567828E+00
  1.96450956E-02  1.02256586E-01  2.76529064E-02 -7.86626199E-02 -5.94446066E-17
  1.53490584E-01  6.98583812E-02 -1.98722087E-01 -1.50172424E-16 -2.60603793E-03
 -8.03572903E-03  1.23194005E-02 -6.97677376E-03 -3.69882532E-18  9.74554317E-03
  7.49872761E-02 -4.24671039E-02 -2.25144751E-17  2.59735083E-01  2.41916700E-01
 -8.04174606E-04 -1.49935365E-02  1.90757341E-02  1.08032411E-02  1.18115405E-17
 -2.56641554E-02  2.64436621E-03  1.49759508E-03  1.63737020E-18 -2.37575669E-02
 -3.99986954E-04 -6.00101868E-02 -1.70717274E-01 -1.48149632E-16  1.27093243E-01
 -1.35291367E-01 -3.84877544E-01 -3.33999398E-16 -1.48918170E-02 -9.56021926E-03
  1.39567828E+00 -2.60598209E-03 -8.03527371E-03 -1.23199967E-02 -6.97723576E-03
 -7.62844248E-18  9.74659451E-03 -7.49888230E-02 -4.24687369E-02 -4.64324738E-17
  1.96452549E-02  1.02257282E-01 -2.76515456E-02 -7.86632527E-02 -6.82645155E-17
  1.53491306E-01 -6.98548337E-02 -1.98723374E-01 -1.72453520E-16 -9.56021926E-03
  1.85328491E-02  2.59735083E-01  2.41916700E-01
Nuclear Attraction Matrix                  R   N=         253
 -6.54744941E+01 -5.85703585E+00 -1.45243713E+01  9.02471004E-02  6.15830759E-01
 -1.57914129E+01  2.21080079E-02  1.50575068E-01  1.93409405E-02 -1.55837341E+01
  3.23378799E-17  2.20435839E-16 -2.87787847E-17 -5.47430464E-17 -1.55124963E+01
 -5.98639896E+00 -1.00782095E+01  5.99546605E-01  1.43613359E-01  2.12187836E-16
 -1.05712526E+01  1.24358876E-02  4.08917198E-01 -5.94425546E+00  1.76411544E-02
 -3.10601639E-17  1.12424177E+00 -8.94621203E+00  3.04644359E-03  9.75580746E-02
  1.76411544E-02 -5.72655554E+00 -5.14687308E-17  2.20626897E-01  3.03794355E-02
 -7.98154980E+00  4.45610149E-18  1.44402789E-16 -3.10601639E-17 -5.14687308E-17
 -5.65968527E+00  3.58376689E-16 -1.56578377E-16 -1.34651690E-16 -7.80970351E+00
 -1.96396500E-08 -4.46073013E-02  1.33611446E-01  3.05962893E-05  2.13318400E-17
 -1.12756340E+00  2.88593903E+00  5.74543460E-04  4.60686785E-16 -6.54744942E+01
 -4.46073004E-02 -6.59339294E-01  1.14809467E+00  3.59284298E-03  1.86003031E-16
 -2.67793497E+00  5.52605979E+00  2.07777698E-02  8.98106548E-16 -5.85703586E+00
 -1.45243713E+01 -1.33611443E-01 -1.14809466E+00  1.81142757E+00  6.21824516E-03
  3.38772940E-16 -2.17264970E+00  3.00244542E+00  1.08182778E-02  7.16341127E-16
 -9.02473570E-02 -6.15832510E-01 -1.57914118E+01  3.02004170E-05  3.58944640E-03
 -6.21207217E-03 -2.82215591E-01 -1.74289653E-18  3.00842399E-02 -6.77269777E-02
 -1.44586171E+00 -2.00224874E-17  2.21079193E-02  1.50574448E-01 -1.93410197E-02
 -1.55837354E+01 -2.12824879E-17 -1.80172803E-16  3.28682625E-16  2.39364888E-19
 -2.81288880E-01 -3.22051330E-16  6.52581985E-16 -7.49688361E-18 -1.43450099E+00
  3.55437546E-18  2.40221201E-17 -6.01787425E-17 -6.09128148E-17 -1.55124961E+01
 -1.12756339E+00 -2.67793483E+00  2.17264948E+00  3.00903790E-02  3.70898065E-16
 -4.71971793E+00  6.16056492E+00  7.87904887E-02  1.04638286E-15 -5.98639897E+00
 -1.00782095E+01 -5.99548291E-01  1.43612640E-01  2.09677130E-17 -1.05712521E+01
 -2.88593902E+00 -5.52605957E+00  3.00244487E+00  6.77394491E-02  7.62546818E-16
 -6.16056489E+00  3.39973066E+00  1.02841883E-01  1.18637814E-15 -1.24359229E-02
 -4.08918346E-01 -5.94425444E+00 -1.76412599E-02 -5.97005439E-17 -1.12424435E+00
 -8.94620893E+00  5.65994454E-04  2.07612081E-02 -1.08050415E-02 -1.44586125E+00
 -1.09448021E-17  7.87722504E-02 -1.02821993E-01 -3.56766133E+00 -5.81022721E-17
  3.04643137E-03  9.75575687E-02 -1.76412599E-02 -5.72655655E+00 -5.70961755E-17
  2.20624271E-01 -3.03808954E-02 -7.98155064E+00 -4.59760951E-16 -8.64387230E-16
  6.98788297E-16  1.58067970E-18 -1.43450096E+00 -9.18481242E-16  1.01943041E-15
 -2.53050751E-17 -3.51628438E+00  4.89786519E-19  1.39822283E-17 -5.97005439E-17
 -5.70961755E-17 -5.65968510E+00 -1.91291721E-19 -2.05900219E-16 -1.44342383E-16
 -7.80970281E+00 -1.02192166E+00 -2.68110278E+00 -8.82413970E-01  2.79024603E+00
  2.12426485E-15 -3.78672265E+00 -1.43141849E+00  4.48904611E+00  3.41571679E-15
 -3.24042175E-03 -6.36128646E-02 -1.05997105E-01  5.33288346E-02  2.63863550E-17
 -6.42088709E-01 -1.49360149E+00  7.34972959E-01  3.58430113E-16 -8.38037389E+00
 -2.33654378E+00 -4.62037263E+00 -2.62732831E-01  1.59555693E+00  1.25329599E-15
 -6.14741467E+00 -4.75822836E-01  3.42289925E+00  2.70266039E-15 -5.19328209E-01
 -1.28060579E+00 -8.48170590E-01  4.24659892E-01  2.09460158E-16 -2.57179288E+00
 -3.14758113E+00  1.39882310E+00  6.33550760E-16 -5.13296256E+00 -6.81179539E+00
 -3.24075449E-03 -6.36170455E-02  1.06003031E-01  5.33328467E-02  6.01972517E-17
 -6.42109939E-01  1.49363633E+00  7.35003648E-01  8.34829532E-16 -1.02193737E+00
 -2.68113503E+00  8.82371502E-01  2.79028992E+00  2.40573063E-15 -3.78675231E+00
  1.43134137E+00  4.48909110E+00  3.87227733E-15 -6.17036561E-02 -8.59090866E-01
 -8.38040295E+00 -5.19342209E-01 -1.28063571E+00  8.48182192E-01  4.24673012E-01
  4.79988011E-16 -2.57183632E+00  3.14760347E+00  1.39885845E+00  1.63747190E-15
 -2.33655308E+00 -4.62039083E+00  2.62702830E-01  1.59556722E+00  1.33709551E-15
 -6.14743776E+00  4.75754483E-01  3.42291822E+00  2.85442373E-15 -8.59089570E-01
 -2.45701947E+00 -5.13298076E+00 -6.81181650E+00
Core Hamiltonian Matrix                    R   N=         253
 -3.59343543E+01 -8.04243858E+00 -1.28131603E+01  9.02471004E-02  6.15830759E-01
 -1.15395358E+01  2.21080079E-02  1.50575068E-01  1.93409405E-02 -1.13318570E+01
  3.23378799E-17  2.20435839E-16 -2.87787847E-17 -5.47430464E-17 -1.12606192E+01
 -5.85511646E+00 -9.59816172E+00  5.99546605E-01  1.43613359E-01  2.12187836E-16
 -1.01662439E+01  1.24358876E-02  4.08917198E-01 -5.39701223E+00  1.76411544E-02
 -3.10601639E-17  1.12424177E+00 -8.27119753E+00  3.04644359E-03  9.75580746E-02
  1.76411544E-02 -5.17931231E+00 -5.14687308E-17  2.20626897E-01  3.03794355E-02
 -7.30653530E+00  4.45610149E-18  1.44402789E-16 -3.10601639E-17 -5.14687308E-17
 -5.11244205E+00  3.58376689E-16 -1.56578377E-16 -1.34651690E-16 -7.13468901E+00
 -1.61281401E-07 -5.59722435E-02  1.58607918E-01  3.06332901E-05  2.53180549E-17
 -1.13009035E+00  2.84987498E+00  5.74490076E-04  4.54935611E-16 -3.59343544E+01
 -5.59722426E-02 -7.37998519E-01  1.21423055E+00  3.59294088E-03  1.96549791E-16
 -2.66292618E+00  5.32150767E+00  2.07774671E-02  8.65486397E-16 -8.04243859E+00
 -1.28131604E+01 -1.58607915E-01 -1.21423054E+00  1.79790464E+00  6.21826046E-03
  3.40421127E-16 -2.09165149E+00  2.74286061E+00  1.08178017E-02  6.65049007E-16
 -9.02473570E-02 -6.15832510E-01 -1.15395348E+01  3.01634162E-05  3.58934850E-03
 -6.21205687E-03 -3.06073862E-01 -1.74289409E-18  3.00843598E-02 -6.77274538E-02
 -1.38380755E+00 -2.00225633E-17  2.21079193E-02  1.50574448E-01 -1.93410197E-02
 -1.13318583E+01 -2.52687028E-17 -1.90719564E-16  3.30330812E-16  2.39367328E-19
 -3.05147151E-01 -3.09134456E-16  6.01289865E-16 -7.49695954E-18 -1.37244682E+00
  3.55437546E-18  2.40221201E-17 -6.01787425E-17 -6.09128148E-17 -1.12606191E+01
 -1.13009034E+00 -2.66292604E+00  2.09165127E+00  3.00902591E-02  3.57981191E-16
 -4.64506266E+00  5.91276632E+00  7.87901219E-02  1.00686615E-15 -5.85511647E+00
 -9.59816172E+00 -5.99548291E-01  1.43612640E-01  2.09677130E-17 -1.01662434E+01
 -2.84987496E+00 -5.32150745E+00  2.74286007E+00  6.77389730E-02  7.11254699E-16
 -5.91276629E+00  3.06987407E+00  1.02841113E-01  1.10350110E-15 -1.24359229E-02
 -4.08918346E-01 -5.39701122E+00 -1.76412599E-02 -5.97005439E-17 -1.12424435E+00
 -8.27119443E+00  5.66047837E-04  2.07615108E-02 -1.08055176E-02 -1.38380709E+00
 -1.09448780E-17  7.87726172E-02 -1.02822762E-01 -3.37781843E+00 -5.81023948E-17
  3.04643137E-03  9.75575687E-02 -1.76412599E-02 -5.17931332E+00 -5.70961755E-17
  2.20624271E-01 -3.03808954E-02 -7.30653614E+00 -4.54009777E-16 -8.31767079E-16
  6.47496177E-16  1.58060378E-18 -1.37244679E+00 -8.78964527E-16  9.36553364E-16
 -2.53051978E-17 -3.32644148E+00  4.89786519E-19  1.39822283E-17 -5.97005439E-17
 -5.70961755E-17 -5.11244188E+00 -1.91291721E-19 -2.05900219E-16 -1.44342383E-16
 -7.13468831E+00 -1.04567934E+00 -2.68150450E+00 -8.22401973E-01  2.61953338E+00
  1.99525890E-15 -3.65963081E+00 -1.29612079E+00  4.10417260E+00  3.12487148E-15
 -4.04452886E-03 -7.86056844E-02 -1.25072196E-01  6.41315188E-02  3.21135354E-17
 -6.67752827E-01 -1.49624770E+00  7.36471572E-01  3.59224622E-16 -6.98469561E+00
 -2.31689868E+00 -4.51811605E+00 -2.35079925E-01  1.51689431E+00  1.19385138E-15
 -5.99392409E+00 -4.05964455E-01  3.22417716E+00  2.55248797E-15 -5.21934247E-01
 -1.28864152E+00 -8.35851189E-01  4.17683118E-01  2.05761332E-16 -2.56204733E+00
 -3.07259385E+00  1.35635599E+00  6.11036285E-16 -4.87322748E+00 -6.56987869E+00
 -4.04492910E-03 -7.86105820E-02  1.25078765E-01  6.41360878E-02  7.20087923E-17
 -6.67774094E-01  1.49628070E+00  7.36501243E-01  8.36466903E-16 -1.04569493E+00
 -2.68153502E+00  8.22361315E-01  2.61957265E+00  2.25758100E-15 -3.65965907E+00
  1.29605000E+00  4.10421356E+00  3.53827793E-15 -7.65954731E-02 -8.68651085E-01
 -6.98472467E+00 -5.21948191E-01 -1.28867098E+00  8.35862196E-01  4.17695776E-01
  4.72359569E-16 -2.56208973E+00  3.07261465E+00  1.35638971E+00  1.59103943E-15
 -2.31690783E+00 -4.51813355E+00  2.35051285E-01  1.51690396E+00  1.26883099E-15
 -5.99394646E+00  4.05899649E-01  3.22419484E+00  2.68197021E-15 -8.68649789E-01
 -2.43848662E+00 -4.87324568E+00 -6.56989980E+00
Multipole Matrix (1,0,0)                   R   N=         253
  1.25599323E+00  2.93512939E-01  1.25599323E+00  7.27077806E-02  4.96075284E-01
  1.25599323E+00  0.00000000E+00  0.00000000E+00  0.00000000E+00  1.25599323E+00
  0.00000000E+00  0.00000000E+00  0.00000000E+00  0.00000000E+00  1.25599323E+00
  2.10102245E-01  9.59127640E-01  4.82583279E-01  0.00000000E+00  0.00000000E+00
  1.25599323E+00  1.00190010E-02  3.29089724E-01  6.29906529E-01  0.00000000E+00
  0.00000000E+00  9.62240114E-01  1.25599323E+00  0.00000000E+00  0.00000000E+00
  0.00000000E+00  6.29906529E-01  0.00000000E+00  0.00000000E+00  0.00000000E+00
  1.25599323E+00  0.00000000E+00  0.00000000E+00  0.00000000E+00  0.00000000E+00
  6.29906529E-01  0.00000000E+00  0.00000000E+00  0.00000000E+00  1.25599323E+00
 -2.74559729E-15 -1.46705034E-03  4.35150370E-03  6.27072494E-09  6.75565753E-19
 -3.77908782E-02  9.75439706E-02  1.41503764E-07  1.52446643E-17 -1.25599701E+00
  1.46704456E-03 -9.49861629E-08  1.25036008E-02 -7.20354524E-09 -7.76061541E-19
 -1.42439125E-01  3.73728039E-01  4.25698166E-07  4.58618589E-17 -2.93513822E-01
 -1.25599701E+00  4.35148712E-03  1.25032736E-02  2.56547010E-07 -4.41068064E-08
 -4.75177083E-18 -4.65719400E-03 -2.29913412E-02  1.75651114E-08  1.89234702E-18
  7.27077806E-02  4.96075284E-01 -1.25599701E+00  6.27070040E-09 -7.20402963E-09
  4.41076986E-08 -4.48179238E-08  7.11388454E-29 -1.87703432E-07  4.89580477E-07
 -9.71483902E-02  6.33698858E-23  0.00000000E+00  0.00000000E+00  0.00000000E+00
 -1.25599701E+00  6.75563109E-19 -7.76113726E-19  4.75186695E-18  7.11388464E-29
 -4.48179238E-08 -2.02219060E-17  5.27441096E-17  6.33698858E-23 -9.71483902E-02
  0.00000000E+00  0.00000000E+00  0.00000000E+00  0.00000000E+00 -1.25599701E+00
  3.77907569E-02  1.42438358E-01 -4.65656796E-03 -1.87702505E-07 -2.02218062E-17
 -8.05924806E-07  4.10503915E-01  1.55715243E-12  1.67757136E-22 -2.10102877E-01
 -9.59130525E-01  4.82583279E-01  0.00000000E+00  0.00000000E+00 -1.25599701E+00
  9.75436638E-02  3.73726478E-01  2.29921767E-02 -4.89578530E-07 -5.27438999E-17
  4.10501811E-01  5.67179439E-07 -7.93143341E-07 -8.54479319E-17  1.00190010E-02
  3.29089724E-01 -6.29908424E-01  0.00000000E+00  0.00000000E+00  9.62240114E-01
 -1.25599701E+00  1.41503310E-07  4.25695857E-07 -1.75631647E-08  9.71479105E-02
 -6.33695754E-23 -1.55715243E-12  7.93147406E-07 -8.05924806E-07  3.24128790E-28
  0.00000000E+00  0.00000000E+00  0.00000000E+00 -6.29908424E-01  0.00000000E+00
  0.00000000E+00  0.00000000E+00 -1.25599701E+00  1.52446154E-17  4.58616101E-17
 -1.89213731E-18 -6.33695754E-23  9.71479105E-02 -1.67757136E-22  8.54483699E-17
  3.24128790E-28 -8.05924806E-07  0.00000000E+00  0.00000000E+00  0.00000000E+00
  0.00000000E+00 -6.29908424E-01  0.00000000E+00  0.00000000E+00  0.00000000E+00
 -1.25599701E+00  3.87219411E-02  3.39457581E-01  2.32515185E-01 -3.76312684E-01
 -2.84375978E-16  6.93077287E-01  5.41095981E-01 -9.30609204E-01 -7.03252676E-16
 -1.11526221E-04 -1.55731485E-04  1.66234980E-03  2.95665980E-04  1.56751079E-19
  6.39822640E-02  1.86419147E-01 -8.56991272E-02 -4.54344819E-17  1.88040319E+00
  8.38201322E-02  4.93426104E-01  3.09268620E-01 -1.86446479E-01 -1.40895862E-16
  9.91305038E-01  1.04240016E+00 -6.84278588E-01 -5.17102932E-16 -1.77379799E-02
 -8.01142656E-02  8.77072359E-03  3.15632631E-02  1.67336653E-17 -2.13182757E-02
  2.82930083E-01  1.47155603E-02  7.80164141E-18  1.23785447E+00  1.88040319E+00
  1.11537274E-04  1.55790351E-04  1.66238394E-03 -2.95735106E-04 -3.23336966E-19
 -6.39830579E-02  1.86420576E-01  8.57008217E-02  9.36995410E-17 -3.87225563E-02
 -3.39458657E-01  2.32509656E-01  3.76315528E-01  3.26569221E-16 -6.93072190E-01
  5.41076762E-01  9.30604917E-01  8.07585391E-16  1.10728187E-07 -1.20496627E-01
 -1.88037297E+00  1.77384086E-02  8.01162425E-02  8.77149436E-03 -3.15642586E-02
 -3.45102472E-17  2.13209316E-02  2.82932407E-01 -1.47174964E-02 -1.60911253E-17
 -8.38206684E-02 -4.93427373E-01  3.09266106E-01  1.86447577E-01  1.61800499E-16
 -9.91301575E-01  1.04238823E+00  6.84278110E-01  5.93821282E-16  1.20499741E-01
  4.83096672E-06 -1.23783457E+00 -1.88037297E+00
Multipole Matrix (0,1,0)                   R   N=         253
  1.97360227E-01  4.61210930E-02  1.97360227E-01  0.00000000E+00  0.00000000E+00
  1.97360227E-01  7.27077806E-02  4.96075284E-01  0.00000000E+00  1.97360227E-01
  0.00000000E+00  0.00000000E+00  0.00000000E+00  0.00000000E+00  1.97360227E-01
  3.30143714E-02  1.50712317E-01  0.00000000E+00  4.82583279E-01  0.00000000E+00
  1.97360227E-01  0.00000000E+00  0.00000000E+00  9.89802278E-02  0.00000000E+00
  0.00000000E+00  0.00000000E+00  1.97360227E-01  1.00190010E-02  3.29089724E-01
  0.00000000E+00  9.89802278E-02  0.00000000E+00  9.62240114E-01  0.00000000E+00
  1.97360227E-01  0.00000000E+00  0.00000000E+00  0.00000000E+00  0.00000000E+00
  9.89802278E-02  0.00000000E+00  0.00000000E+00  0.00000000E+00  1.97360227E-01
  2.86833976E-10  3.01705019E-04 -8.65768574E-04  1.15212837E-04 -1.38065065E-19