Jobname.Temp
FREQ      R                             6-31G               
Number of atoms                            I                4
Charge                                     I                0
Multiplicity                               I                1
Number of electrons                        I               18
Number of alpha electrons                  I                9
Number of beta electrons                   I                9
Atomic numbers                             I   N=           4
           8           8           1           1
Current cartesian coordinates              R   N=          12
  1.25599336E+00  1.97360190E-01 -7.78510957E-17 -1.25599679E+00  1.97356714E-01
 -7.51889777E-17  1.88038580E+00 -1.57886393E+00  6.10167122E-16 -1.88035834E+00
 -1.57887130E+00  6.14153464E-16
Nuclear charges                            R   N=           4
  8.00000000E+00  8.00000000E+00  1.00000000E+00  1.00000000E+00
Number of basis functions                  I               22
Number of contracted shells                I               10
Number of primitive shells                 I               28
Highest angular momentum                   I                1
Largest degree of contraction              I                6
Shell types                                I   N=          10
           0          -1          -1           0          -1          -1
           0           0           0           0
Number of primitives per shell             I   N=          10
           6           3           1           6           3           1
           3           1           3           1
Shell to atom map                          I   N=          10
           1           1           1           2           2           2
           3           3           4           4
Primitive exponents                        R   N=          28
  5.48467170E+03  8.25234950E+02  1.88046960E+02  5.29645000E+01  1.68975700E+01
  5.79963530E+00  1.55396160E+01  3.59993360E+00  1.01376180E+00  2.70005800E-01
  5.48467170E+03  8.25234950E+02  1.88046960E+02  5.29645000E+01  1.68975700E+01
  5.79963530E+00  1.55396160E+01  3.59993360E+00  1.01376180E+00  2.70005800E-01
  1.87311370E+01  2.82539370E+00  6.40121700E-01  1.61277800E-01  1.87311370E+01
  2.82539370E+00  6.40121700E-01  1.61277800E-01
Contraction coefficients                   R   N=          28
  1.83109981E-03  1.39500985E-02  6.84450927E-02  2.32714275E-01  4.70192950E-01
  3.58520862E-01 -1.10777504E-01 -1.48026305E-01  1.13076704E+00  1.00000000E+00
  1.83109981E-03  1.39500985E-02  6.84450927E-02  2.32714275E-01  4.70192950E-01
  3.58520862E-01 -1.10777504E-01 -1.48026305E-01  1.13076704E+00  1.00000000E+00
  3.34945995E-02  2.34726947E-01  8.13757318E-01  1.00000000E+00  3.34945995E-02
  2.34726947E-01  8.13757318E-01  1.00000000E+00
P(S=P) Contraction coefficients            R   N=          28
  0.00000000E+00  0.00000000E+00  0.00000000E+00  0.00000000E+00  0.00000000E+00
  0.00000000E+00  7.08742995E-02  3.39752798E-01  7.27158595E-01  1.00000000E+00
  0.00000000E+00  0.00000000E+00  0.00000000E+00  0.00000000E+00  0.00000000E+00
  0.00000000E+00  7.08742995E-02  3.39752798E-01  7.27158595E-01  1.00000000E+00
  0.00000000E+00  0.00000000E+00  0.00000000E+00  0.00000000E+00  0.00000000E+00
  0.00000000E+00  0.00000000E+00  0.00000000E+00
Coordinates of each shell                  R   N=          30
  1.25599336E+00  1.97360190E-01 -7.78510957E-17  1.25599336E+00  1.97360190E-01
 -7.78510957E-17  1.25599336E+00  1.97360190E-01 -7.78510957E-17 -1.25599679E+00
  1.97356714E-01 -7.51889777E-17 -1.25599679E+00  1.97356714E-01 -7.51889777E-17
 -1.25599679E+00  1.97356714E-01 -7.51889777E-17  1.88038580E+00 -1.57886393E+00
  6.10167122E-16  1.88038580E+00 -1.57886393E+00  6.10167122E-16 -1.88035834E+00
 -1.57887130E+00  6.14153464E-16 -1.88035834E+00 -1.57887130E+00  6.14153464E-16
Orthonormalization Matrix                  R   N=         253
 -3.46879597E-03 -4.83620291E-02  1.70080162E-16  5.62121893E-03  4.67011092E-03
 -5.62256574E-03 -6.73341522E-17  2.01352948E-02 -1.67394305E-05  2.34691609E-03
 -6.86648982E-01 -9.55961840E-03 -3.45078496E-17 -2.15718016E-02  1.13076485E+00
 -5.37316440E-17  3.54506955E-02 -4.38484565E-01 -1.29782503E-01  1.38172268E-17
  3.09851073E-16 -1.76692964E-03  3.72224626E-16 -1.27680082E-16  2.73101045E-16
 -1.25587645E-16  1.26856706E-01  1.25955365E-01  3.54506174E-02 -9.17156594E-04
  4.13403367E-17 -4.25791942E-17 -7.75254942E-04 -5.86460486E-02  7.00265816E-16
  6.65011215E-02  8.87414706E-17  1.06736549E-02  1.32568454E-02 -3.29054245E-02
 -5.86460486E-02  1.06735649E-02 -3.54195127E-01 -1.53866357E-01 -3.27056253E-03
  1.06735649E-02  3.36228457E-17 -2.91735984E-17 -9.14776200E-17 -6.46109084E-17
  2.11688860E-02  1.54211755E-03  3.36105020E-02 -7.56398169E-17  4.86862958E-03
  1.66898965E-03 -1.07612369E-01  1.54892904E+00  1.51494197E-02 -2.15718016E-02
  7.98528866E-02  3.92264596E-01  4.20250905E-17 -3.14712414E-01  8.44935364E-18
 -2.34680310E-03 -4.36281460E-17 -2.18006887E-16 -1.01394518E+00 -1.25957176E-01
  1.21685655E-01  1.21196328E+00 -3.45078496E-17  8.10531468E-17  1.45738281E-16
 -1.01394324E+00  1.13345141E+00 -1.33830735E-16  2.81719354E-02  6.29318127E-17
 -2.79817081E-02  1.56495725E-02  5.28768060E-02 -7.15786657E-03 -8.26990447E-03
 -1.07612369E-01 -4.83621943E-02  5.95672829E-02  2.94332457E-02 -4.28788460E-02
 -1.76684082E-03  3.95186231E-17  1.40050802E-01  7.15783406E-03  3.29050960E-02
  1.00347308E-02 -3.46874598E-03 -5.64801148E-04  8.98238928E-17 -1.27680082E-16
  3.11849578E+00  7.95347309E-03  3.54506955E-02 -7.75254942E-04  4.67011092E-03
  5.95672829E-02  2.35922198E-16 -2.60759492E-16 -7.15147134E-02 -7.96913980E-18
  2.11522222E-02  7.95347309E-03 -9.86479230E-01 -3.12224603E-01  1.13076468E+00
  1.81614305E-02 -6.64954838E-02  4.71773997E-01 -2.23401567E-16 -4.70180800E-01
 -2.34680310E-03 -1.57032463E-16 -1.80197256E-17  3.31244102E-16 -4.96976845E-16
 -1.15713303E-01 -3.46308968E-01 -6.86648982E-01  3.72224626E-16 -1.67638458E-05
  3.09851073E-16 -4.25791942E-17  2.81719354E-02 -2.74576110E-01 -6.35106907E-01
  1.21380842E-02 -9.87603344E-17 -5.64778225E-04  2.11522222E-02  1.02278724E+00
  1.45912309E-16  3.23208766E-02  9.86478651E-01 -4.11690044E-16 -5.71711394E-02
  9.55920366E-03  3.21569846E-17 -1.67638458E-05 -3.27056253E-03  6.74585707E-04
 -8.26990447E-03 -9.55961840E-03  7.63735114E-01 -4.64467353E-17  6.37647657E-17
  4.86867583E-03 -1.76692964E-03 -2.45402245E-02  1.21684771E-01 -6.77835426E-17
  1.63675516E+00 -2.45402245E-02  2.96865781E-03 -1.21382494E-02  1.64344193E-03
 -1.68096546E-03  2.16221166E-01  2.46178655E-01  1.58106632E-02 -4.70180800E-01
 -1.57032463E-16  1.32567188E-02  1.35693794E-16 -3.14712414E-01  8.98238928E-17
  1.85871823E-19 -2.45397061E-02  1.13345162E+00 -3.29054245E-02 -2.01349306E-02
  2.11521598E-02 -7.96913980E-18  7.95364068E-03  5.14014810E-03  1.11941017E+00
 -2.79812767E-02 -3.46308968E-01 -2.03928374E-02 -7.75271308E-04 -3.27056729E-03
 -9.17156594E-04  5.28765958E-02 -7.56398169E-17  2.34691609E-03 -8.59733024E-03
 -1.07612407E-01 -4.64467353E-17 -2.23401567E-16 -1.76684082E-03  7.15783406E-03
 -6.74557955E-04  1.38172268E-17 -1.81627394E-02 -4.67020327E-03 -1.51490524E-02
  1.25955365E-01 -1.68096546E-03  2.16219786E-01  8.87414706E-17 -1.07612407E-01
 -1.06887353E-16 -3.54195127E-01  3.10800806E-17 -9.20255012E-02 -5.37316440E-17
  1.40049402E-01  5.62121893E-03 -5.37946067E-16 -2.94339989E-02 -2.08087491E-16
 -6.73341522E-17 -6.77835426E-17  4.13403367E-17  1.70080162E-16  5.86464635E-02
 -1.51490524E-02 -7.15786657E-03  3.77331628E-16 -1.67394305E-05  1.21380842E-02
  8.26992376E-03 -5.64801148E-04  1.56509531E-02  1.58106632E-02  3.23207868E-02
 -2.15717671E-02  1.54892847E+00 -1.01394324E+00 -5.64778225E-04 -4.61113114E-17
  4.20250905E-17  1.54975814E-16 -4.67020327E-03  1.00347308E-02  4.28803308E-02
  1.64351534E-03 -2.15717671E-02  1.21684771E-01  3.29050960E-02 -4.83620291E-02
 -6.74557955E-04 -7.75271308E-04  1.02278724E+00
Overlap Matrix                             R   N=         253
  1.00000000E+00  2.33689906E-01  1.00000000E+00 -1.34141316E-16 -5.40731116E-16
  1.00000000E+00  9.61767102E-18 -2.16345158E-17  2.36715444E-32  1.00000000E+00
 -6.07364153E-34  1.03690938E-32 -7.78757939E-48 -9.73447424E-49  1.00000000E+00
  1.67279760E-01  7.63640773E-01 -1.20482946E-16  2.78613177E-17  0.00000000E+00
  1.00000000E+00 -2.21392313E-20  1.57951966E-17  5.01520641E-01  4.72083398E-34
  0.00000000E+00  0.00000000E+00  1.00000000E+00  2.73818018E-18  2.44229206E-17
  4.72083398E-34  5.01520641E-01  0.00000000E+00  0.00000000E+00  0.00000000E+00
  1.00000000E+00  1.37563331E-33  0.00000000E+00  0.00000000E+00  0.00000000E+00
  5.01520641E-01  0.00000000E+00  0.00000000E+00  0.00000000E+00  1.00000000E+00
  1.45336832E-09  1.52872821E-03 -4.38681750E-03 -6.06962725E-09  4.64899347E-21
  3.21136416E-02 -8.11911654E-02 -1.12336588E-07  8.60435151E-20  1.00000000E+00
  1.52872821E-03  5.02803907E-02 -8.66098117E-02 -1.19833860E-07  9.17860042E-20
  2.02928168E-01 -4.12906844E-01 -5.71300409E-07  4.37584017E-19  2.33689906E-01
  1.00000000E+00  4.38681750E-03  8.66098117E-02 -1.35801708E-01 -2.20720897E-07
  1.69059806E-19  1.65695455E-01 -2.21118976E-01 -4.81579590E-07  3.68862910E-19
 -2.91536742E-18 -2.68558908E-17  1.00000000E+00  6.06962725E-09  1.19833860E-07
 -2.20720897E-07  2.37241161E-02  2.33912172E-25  2.29257235E-07 -4.81579590E-07
  1.26942228E-01  5.10360955E-25  1.29723340E-17 -6.32626689E-17 -9.48461752E-33
  1.00000000E+00 -4.64899347E-21 -9.17860042E-20  1.69059806E-19  2.33912172E-25
  2.37241161E-02 -1.75598162E-19  3.68862910E-19  5.10360955E-25  1.26942228E-01
  4.14840594E-34  2.08404885E-32  7.27396322E-48 -1.07412911E-48  1.00000000E+00
  3.21136416E-02  2.02928168E-01 -1.65695455E-01 -2.29257235E-07  1.75598162E-19
  4.26611695E-01 -5.56848733E-01 -7.70459278E-07  5.90128521E-19  1.67279760E-01
  7.63640773E-01  1.63663542E-17 -2.04579428E-18  0.00000000E+00  1.00000000E+00
  8.11911654E-02  4.12906844E-01 -2.21118976E-01 -4.81579590E-07  3.68862910E-19
  5.56848733E-01 -3.00233150E-01 -1.00566693E-06  7.70284367E-19  2.21392313E-20
 -3.37195016E-18  5.01520641E-01 -4.72083398E-34  0.00000000E+00  0.00000000E+00
  1.00000000E+00  1.12336588E-07  5.71300409E-07 -4.81579590E-07  1.26942228E-01
  5.10360955E-25  7.70459278E-07 -1.00566693E-06  4.26611695E-01  1.06577011E-24
  1.63966799E-18  4.21493770E-19 -4.72083398E-34  5.01520641E-01  0.00000000E+00
  0.00000000E+00  0.00000000E+00  1.00000000E+00 -8.60435151E-20 -4.37584017E-19
  3.68862910E-19  5.10360955E-25  1.26942228E-01 -5.90128521E-19  7.70284367E-19
  1.06577011E-24  4.26611695E-01 -7.46411250E-34  0.00000000E+00  0.00000000E+00
  0.00000000E+00  5.01520641E-01  0.00000000E+00  0.00000000E+00  0.00000000E+00
  1.00000000E+00  2.97580215E-02  2.22899730E-01  8.78082647E-02 -2.49790272E-01
  9.67559528E-17  4.05496960E-01  1.90984605E-01 -5.43298475E-01  2.10445992E-16
  1.10345058E-04  5.35044590E-03  8.80308532E-03 -4.98543193E-03  1.92363273E-18
  6.44429095E-02  1.50609880E-01 -8.52945617E-02  3.29109720E-17  1.00000000E+00
  6.61109318E-02  3.66457239E-01  4.90867636E-02 -1.39638291E-01  5.40887193E-17
  6.65534214E-01  1.61493934E-01 -4.59405659E-01  1.77950214E-16  1.48327129E-02
  9.94996951E-02  6.52572288E-02 -3.69569827E-02  1.42598801E-17  2.56400691E-01
  3.12518992E-01 -1.76988193E-01  6.82910299E-17  6.58292049E-01  1.00000000E+00
  1.10355168E-04  5.35077089E-03 -8.80354337E-03 -4.98577088E-03  1.94241359E-18
  6.44448466E-02 -1.50612948E-01 -8.52976598E-02  3.32312369E-17  2.97584628E-02
  2.22901979E-01 -8.78049015E-02 -2.49793611E-01  9.69432618E-17  4.05498927E-01
 -1.90976089E-01 -5.43302322E-01  2.10852067E-16  7.32723907E-03  1.03009782E-01
  1.00000000E+00  1.48330772E-02  9.95018285E-02 -6.52580107E-02 -3.69580152E-02
  1.43985258E-17  2.56404710E-01 -3.12520813E-01 -1.76992048E-01  6.89545843E-17
  6.61111907E-02  3.66458490E-01 -4.90845060E-02 -1.39639084E-01  5.41930124E-17
  6.65535878E-01 -1.61486347E-01 -4.59407813E-01  1.78293159E-16  1.03009782E-01
  3.19661771E-01  6.58292049E-01  1.00000000E+00
Kinetic Energy Matrix                      R   N=         253
  2.95401398E+01 -2.18540273E+00  1.71121096E+00  0.00000000E+00  0.00000000E+00
  4.25187706E+00  0.00000000E+00  0.00000000E+00  0.00000000E+00  4.25187706E+00
  0.00000000E+00  0.00000000E+00  0.00000000E+00  0.00000000E+00  4.25187706E+00
  1.31282499E-01  4.80047821E-01  0.00000000E+00  0.00000000E+00  0.00000000E+00
  4.05008700E-01  0.00000000E+00  0.00000000E+00  5.47243224E-01  0.00000000E+00
  0.00000000E+00  0.00000000E+00  6.75014500E-01  0.00000000E+00  0.00000000E+00
  0.00000000E+00  5.47243224E-01  0.00000000E+00  0.00000000E+00  0.00000000E+00
  6.75014500E-01  0.00000000E+00  0.00000000E+00  0.00000000E+00  0.00000000E+00
  5.47243224E-01  0.00000000E+00  0.00000000E+00  0.00000000E+00  6.75014500E-01
 -1.41641914E-07 -1.13649455E-02  2.49964779E-02  3.45852781E-08 -2.64903800E-20
 -2.52694809E-03 -3.60640611E-02 -4.98984533E-08  3.82194118E-20  2.95401398E+01
 -1.13649455E-02 -7.86592302E-02  6.61358666E-02  9.15059855E-08 -7.00884439E-20
  1.50087959E-02 -2.04552147E-01 -2.83019589E-07  2.16777105E-19 -2.18540273E+00
  1.71121096E+00 -2.49964779E-02 -6.61358666E-02 -1.35229708E-02  1.42999842E-08
 -1.09529845E-20  8.09982229E-02 -2.59584816E-01 -4.45021656E-07  3.40861587E-19
  0.00000000E+00  0.00000000E+00  4.25187706E+00 -3.45852781E-08 -9.15059855E-08
  1.42999842E-08 -2.38582711E-02 -1.51546156E-26  1.12069632E-07 -4.45021656E-07
  6.20541759E-02  4.71618155E-25  0.00000000E+00  0.00000000E+00  0.00000000E+00
  4.25187706E+00  2.64903800E-20  7.00884439E-20 -1.09529845E-20 -1.51546156E-26
 -2.38582711E-02 -8.58390416E-20  3.40861587E-19  4.71618155E-25  6.20541759E-02
  0.00000000E+00  0.00000000E+00  0.00000000E+00  0.00000000E+00  4.25187706E+00
 -2.52694809E-03  1.50087959E-02 -8.09982229E-02 -1.12069632E-07  8.58390416E-20
  7.46552862E-02 -2.47798618E-01 -3.42855668E-07  2.62608180E-19  1.31282499E-01
  4.80047821E-01  0.00000000E+00  0.00000000E+00  0.00000000E+00  4.05008700E-01
  3.60640611E-02  2.04552147E-01 -2.59584816E-01 -4.45021656E-07  3.40861587E-19
  2.47798618E-01 -3.29856578E-01 -7.19059369E-07  5.50759079E-19  0.00000000E+00
  0.00000000E+00  5.47243224E-01  0.00000000E+00  0.00000000E+00  0.00000000E+00
  6.75014500E-01  4.98984533E-08  2.83019589E-07 -4.45021656E-07  6.20541759E-02
  4.71618155E-25  3.42855668E-07 -7.19059369E-07  1.89842918E-01  7.62033596E-25
  0.00000000E+00  0.00000000E+00  0.00000000E+00  5.47243224E-01  0.00000000E+00
  0.00000000E+00  0.00000000E+00  6.75014500E-01 -3.82194118E-20 -2.16777105E-19
  3.40861587E-19  4.71618155E-25  6.20541759E-02 -2.62608180E-19  5.50759079E-19
  7.62033596E-25  1.89842918E-01  0.00000000E+00  0.00000000E+00  0.00000000E+00
  0.00000000E+00  5.47243224E-01  0.00000000E+00  0.00000000E+00  0.00000000E+00
  6.75014500E-01 -2.37575997E-02 -4.00515115E-04  6.00113281E-02 -1.70715661E-01
  6.61265001E-17  1.27092818E-01  1.35294622E-01 -3.84875849E-01  1.49081184E-16
 -8.04148974E-04 -1.49932643E-02 -1.90755111E-02  1.08029922E-02 -4.16834282E-18
 -2.56641413E-02 -2.64506970E-03  1.49797650E-03 -5.77995382E-19  1.39567828E+00
  1.96452065E-02  1.02257071E-01  2.76522315E-02 -7.86629647E-02  3.04700021E-17
  1.53491087E-01  6.98565998E-02 -1.98722741E-01  7.69750079E-17 -2.60600329E-03
 -8.03544660E-03  1.23197840E-02 -6.97703615E-03  2.69209475E-18  9.74619530E-03
  7.49883190E-02 -4.24679696E-02  1.63862987E-17  2.59735083E-01  2.41916700E-01
 -8.04210903E-04 -1.49939218E-02  1.90761029E-02  1.08034997E-02 -4.20895087E-18
 -2.56641753E-02  2.64337739E-03  1.49704198E-03 -5.83234721E-19 -2.37574920E-02
 -3.98781172E-04 -6.00098129E-02 -1.70720171E-01  6.62553787E-17  1.27094212E-01
 -1.35288966E-01 -3.84879644E-01  1.49369265E-16 -1.48926395E-02 -9.55967478E-03
  1.39567828E+00 -2.60595206E-03 -8.03502889E-03 -1.23203321E-02 -6.97745790E-03
  2.71835777E-18  9.74715980E-03 -7.49897453E-02 -4.24694549E-02  1.65457355E-17
  1.96453654E-02  1.02257764E-01 -2.76510081E-02 -7.86635487E-02  3.05288073E-17
  1.53491806E-01 -6.98533995E-02 -1.98723905E-01  7.71234439E-17 -9.55967478E-03
  1.85342101E-02  2.59735083E-01  2.41916700E-01
Nuclear Attraction Matrix                  R   N=         253
 -6.54744965E+01 -5.85703640E+00 -1.45243736E+01  9.02472763E-02  6.15831961E-01
 -1.57914147E+01  2.21081836E-02  1.50576256E-01  1.93405327E-02 -1.55837372E+01
 -8.66740197E-18 -5.90338999E-17 -7.20329684E-18  2.76003015E-17 -1.55124984E+01
 -5.98639936E+00 -1.00782113E+01  5.99547771E-01  1.43614437E-01 -5.63174070E-17
 -1.05712546E+01  1.24359118E-02  4.08917993E-01 -5.94425614E+00  1.76407353E-02
 -6.53826104E-18  1.12424373E+00 -8.94621277E+00  3.04646780E-03  9.75587991E-02
  1.76407353E-02 -5.72655729E+00  2.59086408E-17  2.20628097E-01  3.03780360E-02
 -7.98155251E+00 -1.19435235E-18 -3.82587434E-17 -6.53826104E-18  2.59086408E-17
 -5.65968622E+00 -8.67330013E-17 -1.05743848E-17  6.65967912E-17 -7.80970484E+00
 -1.96396795E-08 -4.46073234E-02  1.33611507E-01  3.05837144E-05 -1.53383008E-19
 -1.12756361E+00  2.88593947E+00  5.74269770E-04 -3.27952455E-18 -6.54744967E+01
 -4.46073225E-02 -6.59339617E-01  1.14809520E+00  3.59278052E-03 -2.60909150E-18
 -2.67793587E+00  5.52606138E+00  2.07774758E-02 -1.39092252E-17 -5.85703645E+00
 -1.45243738E+01 -1.33611504E-01 -1.14809519E+00  1.81142836E+00  6.21812693E-03
 -4.62756403E-18 -2.17265048E+00  3.00244637E+00  1.08180270E-02 -8.89411704E-18
 -9.02475023E-02 -6.15833503E-01 -1.57914139E+01  3.02136831E-05  3.58960568E-03
 -6.21235675E-03 -2.82215752E-01  3.65893783E-19  3.00847896E-02 -6.77281128E-02
 -1.44586237E+00  4.47660883E-18  2.21081073E-02  1.50575720E-01 -1.93406532E-02
 -1.55837385E+01  1.29810571E-19 -1.75671269E-19  1.91996916E-19  3.52727066E-19
 -2.81289020E-01 -9.36317573E-18  2.15598796E-17  4.39341055E-18 -1.43450145E+00
 -8.47618726E-18 -5.77290774E-17  7.79421472E-18  2.76417990E-17 -1.55124984E+01
 -1.12756360E+00 -2.67793573E+00  2.17265028E+00  3.00905274E-02 -1.39680648E-17
 -4.71971959E+00  6.16056690E+00  7.87907958E-02 -3.70743002E-17 -5.98639939E+00
 -1.00782114E+01 -5.99549260E-01  1.43613803E-01 -5.50470437E-17 -1.05712543E+01
 -2.88593945E+00 -5.52606114E+00  3.00244588E+00  6.77397655E-02 -3.09638762E-17
 -6.16056684E+00  3.39973189E+00  1.02842412E-01 -4.71998138E-17 -1.24359429E-02
 -4.08919007E-01 -5.94425528E+00 -1.76408740E-02  7.14116293E-18 -1.12424603E+00
 -8.94621001E+00  5.66278736E-04  2.07619954E-02 -1.08056579E-02 -1.44586194E+00
  4.41615995E-18  7.87737482E-02 -1.02823813E-01 -3.56766329E+00  2.00291799E-17
  3.04645729E-03  9.75583509E-02 -1.76408740E-02 -5.72655830E+00  2.59464451E-17
  2.20625663E-01 -3.03794678E-02 -7.98155332E+00  2.83730979E-18 -2.19650495E-18
 -5.10157331E-19  4.33296243E-18 -1.43450142E+00 -2.40168000E-17  3.25413234E-17
  1.98113325E-17 -3.51628547E+00 -1.16800331E-18 -3.73922938E-17  7.14116293E-18
  2.59464451E-17 -5.65968612E+00 -8.43503944E-17  1.29825798E-17  6.66616928E-17
 -7.80970425E+00 -1.02193266E+00 -2.68112559E+00 -8.82394172E-01  2.79027389E+00
 -1.08091344E-15 -3.78674385E+00 -1.43138052E+00  4.48907315E+00 -1.73899227E-15
 -3.24062859E-03 -6.36154953E-02 -1.06000942E-01  5.33311600E-02 -2.05653374E-17
 -6.42102221E-01 -1.49362527E+00  7.34989522E-01 -2.83388865E-16 -8.38039529E+00
 -2.33655041E+00 -4.62038604E+00 -2.62717400E-01  1.59556326E+00 -6.18355281E-16
 -6.14743188E+00 -4.75786978E-01  3.42291117E+00 -1.32663096E-15 -5.19336936E-01
 -1.28062484E+00 -8.48179022E-01  4.24666927E-01 -1.63753918E-16 -2.57182103E+00
 -3.14759909E+00  1.39884043E+00 -5.39025943E-16 -5.13297600E+00 -6.81181123E+00
 -3.24093385E-03 -6.36193355E-02  1.06006398E-01  5.33348281E-02 -2.07913238E-17
 -6.42121799E-01  1.49365761E+00  7.35017539E-01 -2.86563941E-16 -1.02194831E+00
 -2.68115755E+00  8.82356568E-01  2.79031583E+00 -1.08279897E-15 -3.78677297E+00
  1.43131123E+00  4.48911486E+00 -1.74204069E-15 -6.17085345E-02 -8.59118891E-01
 -8.38042311E+00 -5.19349778E-01 -1.28065228E+00  8.48189753E-01  4.24678843E-01
 -1.65555379E-16 -2.57186097E+00  3.14762001E+00  1.39887253E+00 -5.45706460E-16
 -2.33655969E+00 -4.62040407E+00  2.62690263E-01  1.59557261E+00 -6.18915434E-16
 -6.14745441E+00  4.75725022E-01  3.42292804E+00 -1.32764536E-15 -8.59117609E-01
 -2.45706819E+00 -5.13299338E+00 -6.81183118E+00
Core Hamiltonian Matrix                    R   N=         253
 -3.59343567E+01 -8.04243913E+00 -1.28131627E+01  9.02472763E-02  6.15831961E-01
 -1.15395377E+01  2.21081836E-02  1.50576256E-01  1.93405327E-02 -1.13318601E+01
 -8.66740197E-18 -5.90338999E-17 -7.20329684E-18  2.76003015E-17 -1.12606213E+01
 -5.85511686E+00 -9.59816350E+00  5.99547771E-01  1.43614437E-01 -5.63174070E-17
 -1.01662459E+01  1.24359118E-02  4.08917993E-01 -5.39701292E+00  1.76407353E-02
 -6.53826104E-18  1.12424373E+00 -8.27119827E+00  3.04646780E-03  9.75587991E-02
  1.76407353E-02 -5.17931407E+00  2.59086408E-17  2.20628097E-01  3.03780360E-02
 -7.30653801E+00 -1.19435235E-18 -3.82587434E-17 -6.53826104E-18  2.59086408E-17
 -5.11244300E+00 -8.67330013E-17 -1.05743848E-17  6.65967912E-17 -7.13469034E+00
 -1.61281594E-07 -5.59722689E-02  1.58607985E-01  3.06182997E-05 -1.79873388E-19
 -1.13009056E+00  2.84987541E+00  5.74219872E-04 -3.24130514E-18 -3.59343569E+01
 -5.59722680E-02 -7.37998847E-01  1.21423107E+00  3.59287203E-03 -2.67917994E-18
 -2.66292708E+00  5.32150923E+00  2.07771928E-02 -1.36924481E-17 -8.04243918E+00
 -1.28131629E+01 -1.58607982E-01 -1.21423106E+00  1.79790539E+00  6.21814123E-03
 -4.63851702E-18 -2.09165226E+00  2.74286156E+00  1.08175819E-02 -8.55325545E-18
 -9.02475023E-02 -6.15833503E-01 -1.15395369E+01  3.01790978E-05  3.58951417E-03
 -6.21234245E-03 -3.06074023E-01  3.65893768E-19  3.00849017E-02 -6.77285578E-02
 -1.38380820E+00  4.47660930E-18  2.21081073E-02  1.50575720E-01 -1.93406532E-02
 -1.13318615E+01  1.56300951E-19 -1.05582825E-19  1.81043931E-19  3.52727051E-19
 -3.05147291E-01 -9.44901478E-18  2.19007412E-17  4.39341102E-18 -1.37244727E+00
 -8.47618726E-18 -5.77290774E-17  7.79421472E-18  2.76417990E-17 -1.12606213E+01
 -1.13009055E+00 -2.66292693E+00  2.09165205E+00  3.00904153E-02 -1.38822258E-17
 -4.64506431E+00  5.91276828E+00  7.87904530E-02 -3.68116920E-17 -5.85511689E+00
 -9.59816361E+00 -5.99549260E-01  1.43613803E-01 -5.50470437E-17 -1.01662456E+01
 -2.84987538E+00 -5.32150899E+00  2.74286106E+00  6.77393204E-02 -3.06230146E-17
 -5.91276822E+00  3.06987531E+00  1.02841693E-01 -4.66490547E-17 -1.24359429E-02
 -4.08919007E-01 -5.39701206E+00 -1.76408740E-02  7.14116293E-18 -1.12424603E+00
 -8.27119551E+00  5.66328635E-04  2.07622784E-02 -1.08061030E-02 -1.38380776E+00
  4.41616042E-18  7.87740911E-02 -1.02824532E-01 -3.37782037E+00  2.00291807E-17
  3.04645729E-03  9.75583509E-02 -1.76408740E-02 -5.17931508E+00  2.59464451E-17
  2.20625663E-01 -3.03794678E-02 -7.30653882E+00  2.79909038E-18 -2.41328206E-18
 -1.69295744E-19  4.33296290E-18 -1.37244724E+00 -2.42794082E-17  3.30920825E-17
  1.98113333E-17 -3.32644255E+00 -1.16800331E-18 -3.73922938E-17  7.14116293E-18
  2.59464451E-17 -5.11244289E+00 -8.43503944E-17  1.29825798E-17  6.66616928E-17
 -7.13468975E+00 -1.04569026E+00 -2.68152611E+00 -8.22382844E-01  2.61955823E+00
 -1.01478694E-15 -3.65965103E+00 -1.29608590E+00  4.10419730E+00 -1.58991109E-15
 -4.04477756E-03 -7.86087596E-02 -1.25076453E-01  6.41341521E-02 -2.47336803E-17
 -6.67766362E-01 -1.49627034E+00  7.36487498E-01 -2.83966860E-16 -6.98471701E+00
 -2.31690520E+00 -4.51812897E+00 -2.35065169E-01  1.51690029E+00 -5.87885279E-16
 -5.99394079E+00 -4.05930378E-01  3.22418843E+00 -1.24965595E-15 -5.21942939E-01
 -1.28866028E+00 -8.35859238E-01  4.17689891E-01 -1.61061823E-16 -2.56207484E+00
 -3.07261077E+00  1.35637246E+00 -5.22639644E-16 -4.87324092E+00 -6.56989453E+00
 -4.04514475E-03 -7.86132573E-02  1.25082501E-01  6.41383278E-02 -2.50002747E-17
 -6.67785975E-01  1.49630098E+00  7.36514581E-01 -2.87147176E-16 -1.04570580E+00
 -2.68155633E+00  8.22346755E-01  2.61959566E+00 -1.01654359E-15 -3.65967876E+00
  1.29602226E+00  4.10423522E+00 -1.59267142E-15 -7.66011739E-02 -8.68678565E-01
 -6.98474482E+00 -5.21955730E-01 -1.28868731E+00  8.35869421E-01  4.17701385E-01
 -1.62837022E-16 -2.56211381E+00  3.07263026E+00  1.35640308E+00 -5.29160725E-16
 -2.31691432E+00 -4.51814630E+00  2.35039255E-01  1.51690906E+00 -5.88386626E-16
 -5.99396260E+00  4.05871623E-01  3.22420413E+00 -1.25052192E-15 -8.68677284E-01
 -2.43853398E+00 -4.87325830E+00 -6.56991448E+00
Multipole Matrix (1,0,0)                   R   N=         253
  1.25599336E+00  2.93512970E-01  1.25599336E+00  7.27077806E-02  4.96075284E-01
  1.25599336E+00  0.00000000E+00  0.00000000E+00  0.00000000E+00  1.25599336E+00
  0.00000000E+00  0.00000000E+00  0.00000000E+00  0.00000000E+00  1.25599336E+00
  2.10102267E-01  9.59127740E-01  4.82583279E-01  0.00000000E+00  0.00000000E+00
  1.25599336E+00  1.00190010E-02  3.29089724E-01  6.29906594E-01  0.00000000E+00
  0.00000000E+00  9.62240114E-01  1.25599336E+00  0.00000000E+00  0.00000000E+00
  0.00000000E+00  6.29906594E-01  0.00000000E+00  0.00000000E+00  0.00000000E+00
  1.25599336E+00  0.00000000E+00  0.00000000E+00  0.00000000E+00  0.00000000E+00
  6.29906594E-01  0.00000000E+00  0.00000000E+00  0.00000000E+00  1.25599336E+00
 -2.49439389E-15 -1.46705058E-03  4.35150431E-03  5.86135670E-09 -4.48946993E-21
 -3.77908756E-02  9.75439609E-02  1.32266021E-07 -1.01308341E-19 -1.25599679E+00
  1.46704533E-03 -8.62954901E-08  1.25035883E-02 -6.73330186E-09  5.15733093E-21
 -1.42439097E-01  3.73727981E-01  3.97907406E-07 -3.04774718E-19 -2.93513772E-01
 -1.25599679E+00  4.35148925E-03  1.25032910E-02  2.33074461E-07 -4.12274468E-08
  3.15779080E-20 -4.65715740E-03 -2.29913987E-02  1.64183090E-08 -1.25755022E-20
  7.27077806E-02  4.96075284E-01 -1.25599679E+00  5.86133587E-09 -6.73371319E-09
  4.12282045E-08 -4.07173492E-08 -4.01460008E-31 -1.75449635E-07  4.57619325E-07
 -9.71483740E-02 -3.93632138E-25  0.00000000E+00  0.00000000E+00  0.00000000E+00
 -1.25599679E+00 -4.48945397E-21  5.15764600E-21 -3.15784883E-20 -4.01459985E-31
 -4.07173492E-08  1.34384563E-19 -3.50510693E-19 -3.93632138E-25 -9.71483740E-02
  0.00000000E+00  0.00000000E+00  0.00000000E+00  0.00000000E+00 -1.25599679E+00
  3.77907653E-02  1.42438401E-01 -4.65658863E-03 -1.75448848E-07  1.34383960E-19
 -7.32187336E-07  4.10503842E-01  1.32232785E-12 -1.01282884E-24 -2.10102841E-01
 -9.59130361E-01  4.82583279E-01  0.00000000E+00  0.00000000E+00 -1.25599679E+00
  9.75436823E-02  3.73726564E-01  2.29921577E-02 -4.57617672E-07  3.50509427E-19
  4.10501930E-01  5.15285709E-07 -7.41365097E-07  5.67844013E-19  1.00190010E-02
  3.29089724E-01 -6.29908316E-01  0.00000000E+00  0.00000000E+00  9.62240114E-01
 -1.25599679E+00  1.32265636E-07  3.97905445E-07 -1.64166559E-08  9.71479382E-02
  3.93630386E-25 -1.32232785E-12  7.41368549E-07 -7.32187336E-07 -1.82916546E-30
  0.00000000E+00  0.00000000E+00  0.00000000E+00 -6.29908316E-01  0.00000000E+00
  0.00000000E+00  0.00000000E+00 -1.25599679E+00 -1.01308046E-19 -3.04773216E-19
  1.25742361E-20  3.93630386E-25  9.71479382E-02  1.01282884E-24 -5.67846657E-19
 -1.82916546E-30 -7.32187336E-07  0.00000000E+00  0.00000000E+00  0.00000000E+00
  0.00000000E+00 -6.29908316E-01  0.00000000E+00  0.00000000E+00  0.00000000E+00
 -1.25599679E+00  3.87223084E-02  3.39458360E-01  2.32512637E-01 -3.76314199E-01
  1.45764839E-16  6.93074536E-01  5.41086207E-01 -9.30606174E-01  3.60469151E-16
 -1.11533282E-04 -1.55772090E-04  1.66236337E-03  2.95711812E-04 -1.14100629E-19
  6.39827804E-02  1.86420260E-01 -8.56999140E-02  3.30673776E-17  1.88038580E+00
  8.38203480E-02  4.93426398E-01  3.09267431E-01 -1.86446777E-01  7.22199284E-17
  9.91302495E-01  1.04239419E+00 -6.84277330E-01  2.65053978E-16 -1.77382764E-02
 -8.01156538E-02  8.77102997E-03  3.15638333E-02 -1.21789293E-17 -2.13201346E-02
  2.82931238E-01  1.47168562E-02 -5.67851025E-18  1.23784302E+00  1.88038580E+00
  1.11543423E-04  1.55825644E-04  1.66239536E-03 -2.95774735E-04  1.15231301E-19
 -6.39835204E-02  1.86421613E-01  8.57014585E-02 -3.33885535E-17 -3.87229183E-02
 -3.39459645E-01  2.32507839E-01  3.76317027E-01 -1.46046170E-16 -6.93070205E-01
  5.41068979E-01  9.30602359E-01 -3.61160671E-16  1.00605055E-07 -1.20499565E-01
 -1.88035834E+00  1.77386700E-02  8.01174663E-02  8.77173205E-03 -3.15647369E-02
  1.22973509E-17  2.13225508E-02  2.82933392E-01 -1.47186139E-02  5.73424578E-18
 -8.38208643E-02 -4.93427701E-01  3.09265242E-01  1.86447767E-01 -7.23591553E-17
 -9.91299568E-01  1.04238359E+00  6.84276809E-01 -2.65563341E-16  1.20502394E-01
  4.38904611E-06 -1.23782495E+00 -1.88035834E+00
Multipole Matrix (0,1,0)                   R   N=         253
  1.97360190E-01  4.61210843E-02  1.97360190E-01  0.00000000E+00  0.00000000E+00
  1.97360190E-01  7.27077806E-02  4.96075284E-01  0.00000000E+00  1.97360190E-01
  0.00000000E+00  0.00000000E+00  0.00000000E+00  0.00000000E+00  1.97360190E-01
  3.30143651E-02  1.50712288E-01  0.00000000E+00  4.82583279E-01  0.00000000E+00
  1.97360190E-01  0.00000000E+00  0.00000000E+00  9.89802090E-02  0.00000000E+00
  0.00000000E+00  0.00000000E+00  1.97360190E-01  1.00190010E-02  3.29089724E-01
  0.00000000E+00  9.89802090E-02  0.00000000E+00  9.62240114E-01  0.00000000E+00
  1.97360190E-01  0.00000000E+00  0.00000000E+00  0.00000000E+00  0.00000000E+00
  9.89802090E-02  0.00000000E+00  0.00000000E+00  0.00000000E+00  1.97360190E-01
  2.86834449E-10  3.01705403E-04 -8.65769650E-04  1.15212963E-04  9.17511944E-22
  6.33784632E-03 -1.60236305E-02  1.94879391E-03  1.69812748E-20  1.97356714E-01
  3.01709463E-04  9.92326009E-03 -1.70931851E-02  1.73700524E-02  1.81147509E-20
  4.00493920E-02 -8.14902578E-02  8.61406572E-02  8.63604826E-20  4.61202721E-02