Jobname.Temp
FOPT      R                             6-31G               
Number of atoms                            I                4
Charge                                     I                0
Multiplicity                               I                1
Number of electrons                        I               18
Number of alpha electrons                  I                9
Number of beta electrons                   I                9
Atomic numbers                             I   N=           4
           8           8           1           1
Current cartesian coordinates              R   N=          12
 -1.22591557E+00  2.13375182E-01 -1.28163385E-01  1.22591557E+00 -2.13375182E-01
 -1.28163385E-01  1.93686018E+00  1.08042974E+00  1.02530607E+00 -1.93686018E+00
 -1.08042974E+00  1.02530607E+00
Nuclear charges                            R   N=           4
  8.00000000E+00  8.00000000E+00  1.00000000E+00  1.00000000E+00
Number of basis functions                  I               22
Number of contracted shells                I               10
Number of primitive shells                 I               28
Highest angular momentum                   I                1
Largest degree of contraction              I                6
Shell types                                I   N=          10
           0          -1          -1           0          -1          -1
           0           0           0           0
Number of primitives per shell             I   N=          10
           6           3           1           6           3           1
           3           1           3           1
Shell to atom map                          I   N=          10
           1           1           1           2           2           2
           3           3           4           4
Primitive exponents                        R   N=          28
  5.48467170E+03  8.25234950E+02  1.88046960E+02  5.29645000E+01  1.68975700E+01
  5.79963530E+00  1.55396160E+01  3.59993360E+00  1.01376180E+00  2.70005800E-01
  5.48467170E+03  8.25234950E+02  1.88046960E+02  5.29645000E+01  1.68975700E+01
  5.79963530E+00  1.55396160E+01  3.59993360E+00  1.01376180E+00  2.70005800E-01
  1.87311370E+01  2.82539370E+00  6.40121700E-01  1.61277800E-01  1.87311370E+01
  2.82539370E+00  6.40121700E-01  1.61277800E-01
Contraction coefficients                   R   N=          28
  1.83109981E-03  1.39500985E-02  6.84450927E-02  2.32714275E-01  4.70192950E-01
  3.58520862E-01 -1.10777504E-01 -1.48026305E-01  1.13076704E+00  1.00000000E+00
  1.83109981E-03  1.39500985E-02  6.84450927E-02  2.32714275E-01  4.70192950E-01
  3.58520862E-01 -1.10777504E-01 -1.48026305E-01  1.13076704E+00  1.00000000E+00
  3.34945995E-02  2.34726947E-01  8.13757318E-01  1.00000000E+00  3.34945995E-02
  2.34726947E-01  8.13757318E-01  1.00000000E+00
P(S=P) Contraction coefficients            R   N=          28
  0.00000000E+00  0.00000000E+00  0.00000000E+00  0.00000000E+00  0.00000000E+00
  0.00000000E+00  7.08742995E-02  3.39752798E-01  7.27158595E-01  1.00000000E+00
  0.00000000E+00  0.00000000E+00  0.00000000E+00  0.00000000E+00  0.00000000E+00
  0.00000000E+00  7.08742995E-02  3.39752798E-01  7.27158595E-01  1.00000000E+00
  0.00000000E+00  0.00000000E+00  0.00000000E+00  0.00000000E+00  0.00000000E+00
  0.00000000E+00  0.00000000E+00  0.00000000E+00
Coordinates of each shell                  R   N=          30
 -1.22591557E+00  2.13375182E-01 -1.28163385E-01 -1.22591557E+00  2.13375182E-01
 -1.28163385E-01 -1.22591557E+00  2.13375182E-01 -1.28163385E-01  1.22591557E+00
 -2.13375182E-01 -1.28163385E-01  1.22591557E+00 -2.13375182E-01 -1.28163385E-01
  1.22591557E+00 -2.13375182E-01 -1.28163385E-01  1.93686018E+00  1.08042974E+00
  1.02530607E+00  1.93686018E+00  1.08042974E+00  1.02530607E+00 -1.93686018E+00
 -1.08042974E+00  1.02530607E+00 -1.93686018E+00 -1.08042974E+00  1.02530607E+00
Current cartesian coordinates              R   N=          12
 -1.22591557E+00  2.13375182E-01 -1.28163385E-01  1.22591557E+00 -2.13375182E-01
 -1.28163385E-01  1.93686018E+00  1.08042974E+00  1.02530607E+00 -1.93686018E+00
 -1.08042974E+00  1.02530607E+00
Orthonormalization Matrix                  R   N=         253
  1.36128177E-02 -4.96456642E-02 -1.17795809E-03 -5.97959573E-03  2.12599606E-03
  5.97959573E-03 -3.80165651E-02 -1.48712356E-02  1.35775227E-03  7.53079740E-04
  7.05497830E-01 -1.50185000E-02  2.61589948E-03  1.76424115E-02  1.12584168E+00
 -4.86438044E-03  2.57418520E-02 -2.95241817E-01  2.95829797E-01  8.25149770E-03
  3.05915400E-01 -7.31727947E-03 -9.35777242E-02 -3.67497580E-03 -5.83925360E-03
  5.91549204E-02 -3.30164057E-01 -1.26137533E-01  2.57418520E-02 -9.10785950E-04
  2.05673200E-04  1.13970435E-03  5.48710344E-04  7.34139726E-02 -2.26069791E-03
 -1.48307239E-01  4.63565250E-04 -9.77046216E-03 -2.78102447E-03  3.12324261E-02
  7.34139726E-02  9.77046216E-03 -3.33743596E-01  2.11104697E-02 -3.73731228E-04
  9.77046216E-03 -1.54222882E-02 -2.45890020E-03  9.73357608E-04 -2.43254992E-02
 -1.78579333E-02  3.45410583E-03 -5.84223380E-03 -2.87910428E-03  3.49488082E-03
  2.48986049E-03 -1.07336565E-01  1.55394696E+00 -1.56645604E-02  1.76424115E-02
  1.35687127E-01  7.46285870E-02 -6.87581595E-03 -3.29379446E-01  5.79224714E-02
  7.53079740E-04  2.26069791E-03  1.39793797E-02 -1.03007281E+00  1.26137533E-01
 -1.12682866E-01  1.38029335E+00  2.61589948E-03 -2.63974605E-03 -2.49293708E-01
 -1.03007281E+00  1.13388471E+00  2.87910428E-03  2.50943000E-02 -7.77381192E-02
  5.65957700E-02  1.38382624E-01 -1.31907375E-02  7.52252615E-03  8.90999708E-03
 -1.07336565E-01 -4.96456642E-02  3.95818816E-02  4.24085196E-02 -2.74044900E-02
  7.31727947E-03  8.76720953E-03  5.17871037E-02 -7.52252615E-03 -3.12324261E-02
  1.32469144E-02  1.36128177E-02  3.83983301E-04  4.80297914E-03 -3.67497580E-03
  3.21272043E+00  1.50455000E-04  2.57418520E-02  5.48710344E-04  2.12599606E-03
  3.95818816E-02  2.45890020E-03  2.63974605E-03  3.01144473E-01  1.58612678E-02
  2.03501223E-02  1.50455000E-04  1.04660951E+00  1.20890916E-01  1.12584168E+00
 -1.88186836E-02 -1.48307239E-01 -4.73191473E-02 -7.77381192E-02 -4.62305983E-01
  7.53079740E-04 -1.72816934E-01  1.21620775E-02 -1.62576698E-02 -1.72169190E-02
 -6.25891995E-01 -3.44021788E-01  7.05497830E-01 -9.35777242E-02 -1.35775227E-03
  3.05915400E-01  1.13970435E-03  2.50943000E-02 -3.13296926E-01 -2.31713631E-01
 -1.22660718E-02 -2.61589948E-03  3.83983301E-04  2.03501223E-02  1.02282120E+00
  4.63565250E-04  3.19820474E-02 -1.04660951E+00  1.62576698E-02  4.61118683E-02
 -1.50185000E-02 -2.85097860E-01 -1.35775227E-03 -3.73731228E-04 -7.07670261E-04
  8.90999708E-03 -1.50185000E-02  7.35886080E-01  1.39793797E-02 -6.87581595E-03
  3.49488082E-03 -7.31727947E-03  1.02623851E-02  1.12682866E-01  1.47846554E-02
  1.44095994E+00  1.02623851E-02 -6.79264189E-02  1.22660718E-02  4.62535014E-03
  1.22122380E-02  1.89009881E-01  3.49558055E-01 -3.32356063E-03 -4.62305983E-01
 -1.72816934E-01  2.03501223E-02  1.58612678E-02 -1.50455000E-04  2.66516737E-02
  1.12410942E+00  5.65957700E-02 -3.44021788E-01  1.80499481E-02 -5.48710344E-04
 -2.78102447E-03 -3.80165651E-02  1.47846554E-02  2.05673200E-04 -1.17795809E-03
 -7.34139726E-02  1.56645604E-02  7.52252615E-03 -1.21620775E-02  3.73731228E-04
  1.35775227E-03  7.07670261E-04  8.25149770E-03 -1.88186836E-02  2.12599606E-03
  1.56645604E-02 -1.26137533E-01  1.22122380E-02  1.89009881E-01  3.83983301E-04
 -3.67497580E-03  2.12599606E-03  1.32469144E-02  2.74044900E-02  4.62535014E-03
 -1.76424115E-02  1.12682866E-01 -3.12324261E-02  4.63565250E-04 -1.07336565E-01
  1.13970435E-03  1.28574902E-02 -3.29379446E-01  4.80297914E-03 -1.91147953E-04
 -1.02623851E-02  1.13388471E+00  3.12324261E-02  1.48712356E-02  2.05673200E-04
 -3.33743596E-01  1.91147953E-04  2.02429639E-02 -4.86438044E-03  5.17871037E-02
 -5.97959573E-03  1.17795809E-03 -4.24085196E-02 -6.87581595E-03 -1.22660718E-02
 -8.90999708E-03 -9.10785950E-04 -1.31907375E-02 -2.87910428E-03  7.53079740E-04
  2.55265852E-02 -1.07336565E-01  1.39793797E-02 -7.77381192E-02  7.31727947E-03
 -7.52252615E-03  1.38382624E-01 -3.32356063E-03  3.19820474E-02 -1.76424115E-02
  1.55394696E+00 -1.03007281E+00  3.83983301E-04  4.80297914E-03 -4.96456642E-02
  7.07670261E-04 -5.48710344E-04  1.02282120E+00
Overlap Matrix                             R   N=         253
  1.00000000E+00  2.33689906E-01  1.00000000E+00 -5.90455813E-17 -3.46297654E-17
  1.00000000E+00  3.74590471E-19 -2.59597747E-17  0.00000000E+00  1.00000000E+00
  1.36858681E-18  2.59597747E-17  0.00000000E+00 -2.19200873E-33  1.00000000E+00
  1.67279760E-01  7.63640773E-01  1.63663542E-17  0.00000000E+00  0.00000000E+00
  1.00000000E+00  2.87576520E-18 -3.37195016E-18  5.01520641E-01  0.00000000E+00
  0.00000000E+00  0.00000000E+00  1.00000000E+00  1.64252319E-18  0.00000000E+00
  0.00000000E+00  5.01520641E-01  0.00000000E+00  0.00000000E+00  0.00000000E+00
  1.00000000E+00  0.00000000E+00  0.00000000E+00  0.00000000E+00  0.00000000E+00
  5.01520641E-01  0.00000000E+00  0.00000000E+00  0.00000000E+00  1.00000000E+00
  2.03759532E-09  1.69658701E-03  4.75340811E-03 -8.27349001E-04  1.03632542E-18
  3.31070254E-02  8.16987446E-02 -1.42199813E-02  1.82206765E-17  1.00000000E+00
  1.69658701E-03  5.32662703E-02  8.97324929E-02 -1.56182862E-02  2.04357778E-17
  2.07964873E-01  4.12993069E-01 -7.18830352E-02  9.46700404E-17  2.33689906E-01
  1.00000000E+00 -4.75340811E-03 -8.97324929E-02 -1.36719525E-01  2.81904856E-02
 -3.70631646E-17 -1.65873234E-01 -2.09919136E-01  5.91984323E-02 -7.80869326E-17
  5.90455813E-17  3.46297654E-17  1.00000000E+00  8.27349001E-04  1.56182862E-02
  2.81904856E-02  2.03379683E-02  6.45098664E-18  2.88708756E-02  5.91984323E-02
  1.19892757E-01  1.35913315E-17 -3.05614876E-18  6.93059973E-17 -3.34914293E-33
  1.00000000E+00 -1.11734793E-18 -2.02423091E-17 -3.63416208E-17  6.32539916E-18
  2.52446310E-02 -3.46852179E-17 -7.07749886E-17  1.23186595E-17  1.30196472E-01
  1.06586747E-17  2.59597747E-17  0.00000000E+00  2.19200873E-33  1.00000000E+00
  3.31070254E-02  2.07964873E-01  1.65873234E-01 -2.88708756E-02  3.78273896E-17
  4.33374573E-01  5.52128954E-01 -9.61001722E-02  1.25005813E-16  1.67279760E-01
  7.63640773E-01 -1.63663542E-17 -1.68925380E-17 -1.68925380E-17  1.00000000E+00
 -8.16987446E-02 -4.12993069E-01 -2.09919136E-01  5.91984323E-02 -7.82758580E-17
 -5.52128954E-01 -2.70050133E-01  1.22433781E-01 -1.59260217E-16 -2.87576520E-18
  3.37195016E-18  5.01520641E-01  0.00000000E+00  0.00000000E+00  0.00000000E+00
  1.00000000E+00  1.42199813E-02  7.18830352E-02  5.91984323E-02  1.19892757E-01
  1.36242147E-17  9.61001722E-02  1.22433781E-01  4.12064502E-01  2.77198545E-17
 -4.38070336E-18 -2.55543327E-17  0.00000000E+00  5.01520641E-01  1.23806530E-33
  0.00000000E+00  0.00000000E+00  1.00000000E+00 -1.82206765E-17 -9.50792472E-17
 -7.75814073E-17  1.35033429E-17  1.30196472E-01 -1.25005813E-16 -1.59260217E-16
  2.77198545E-17  4.33374573E-01  0.00000000E+00 -2.55543327E-17  0.00000000E+00
  1.23806530E-33  5.01520641E-01  0.00000000E+00  0.00000000E+00  0.00000000E+00
  1.00000000E+00  1.88413783E-04  7.62755369E-03  1.27469942E-02  3.49450458E-03
  4.64884933E-03  7.68109627E-02  1.81197846E-01  4.96741970E-02  6.60831465E-02
  3.03882152E-02  2.26101497E-01  1.01572580E-01  1.84845720E-01  1.64796023E-01
  4.08285841E-01  2.18966415E-01  3.98483575E-01  3.55261178E-01  1.00000000E+00
  1.71195552E-02  1.12766760E-01  7.47521826E-02  2.04928190E-02  2.72622415E-02
  2.80973968E-01  3.45352567E-01  9.46761336E-02  1.25950638E-01  6.64777392E-02
  3.68228918E-01  5.61670231E-02  1.02214927E-01  9.11279605E-02  6.67888470E-01
  1.84530428E-01  3.35815630E-01  2.99390650E-01  6.58292049E-01  1.00000000E+00
  3.03882152E-02  2.26101497E-01 -1.01572580E-01 -1.84845720E-01  1.64796023E-01
  4.08285841E-01 -2.18966415E-01 -3.98483575E-01  3.55261178E-01  1.88413783E-04
  7.62755369E-03 -1.27469942E-02 -3.49450458E-03  4.64884933E-03  7.68109627E-02
 -1.81197846E-01 -4.96741970E-02  6.60831465E-02  1.22853695E-03  4.99927153E-02
  1.00000000E+00  6.64777392E-02  3.68228918E-01 -5.61670231E-02 -1.02214927E-01
  9.11279605E-02  6.67888470E-01 -1.84530428E-01 -3.35815630E-01  2.99390650E-01
  1.71195552E-02  1.12766760E-01 -7.47521826E-02 -2.04928190E-02  2.72622415E-02
  2.80973968E-01 -3.45352567E-01 -9.46761336E-02  1.25950638E-01  4.99927153E-02
  2.04625824E-01  6.58292049E-01  1.00000000E+00
Kinetic Energy Matrix                      R   N=         253
  2.95401398E+01 -2.18540273E+00  1.71121096E+00  0.00000000E+00  0.00000000E+00
  4.25187706E+00  0.00000000E+00  0.00000000E+00  0.00000000E+00  4.25187706E+00
  0.00000000E+00  0.00000000E+00  0.00000000E+00  0.00000000E+00  4.25187706E+00
  1.31282499E-01  4.80047821E-01  0.00000000E+00  0.00000000E+00  0.00000000E+00
  4.05008700E-01  0.00000000E+00  0.00000000E+00  5.47243224E-01  0.00000000E+00
  0.00000000E+00  0.00000000E+00  6.75014500E-01  0.00000000E+00  0.00000000E+00
  0.00000000E+00  5.47243224E-01  0.00000000E+00  0.00000000E+00  0.00000000E+00
  6.75014500E-01  0.00000000E+00  0.00000000E+00  0.00000000E+00  0.00000000E+00
  5.47243224E-01  0.00000000E+00  0.00000000E+00  0.00000000E+00  6.75014500E-01
 -1.94598104E-07 -1.23042239E-02 -2.62191793E-02  4.56354919E-03 -5.95286867E-18
 -2.07774169E-03  3.75919291E-02 -6.54302013E-03  8.53218151E-18  2.95401398E+01
 -1.23042239E-02 -8.00155331E-02 -6.31351102E-02  1.09889092E-02 -1.35600855E-17
  1.75298549E-02  2.08824570E-01 -3.63467211E-02  4.69860002E-17 -2.18540273E+00
  1.71121096E+00  2.62191793E-02  6.31351102E-02 -2.31964440E-02 -1.24272856E-04
 -2.37402982E-19 -8.29128192E-02 -2.53000377E-01  5.53630384E-02 -6.96669120E-17
  0.00000000E+00  0.00000000E+00  4.25187706E+00 -4.56354919E-03 -1.09889092E-02
 -1.24272856E-04 -2.38888046E-02  4.13209039E-20  1.44312957E-02  5.53630384E-02
  5.54434067E-02  1.21257945E-17  0.00000000E+00  0.00000000E+00  0.00000000E+00
  4.25187706E+00  5.95286867E-18  1.38739829E-17 -2.37402982E-19  4.13209039E-20
 -2.39104348E-02 -1.73663259E-17 -6.60851006E-17  1.15023664E-17  6.50795568E-02
  0.00000000E+00  0.00000000E+00  0.00000000E+00  0.00000000E+00  4.25187706E+00
 -2.07774169E-03  1.75298549E-02  8.29128192E-02 -1.44312957E-02  1.89159589E-17
  7.76791757E-02  2.48043037E-01 -4.31728465E-02  5.61586586E-17  1.31282499E-01
  4.80047821E-01  0.00000000E+00  0.00000000E+00  0.00000000E+00  4.05008700E-01
 -3.75919291E-02 -2.08824570E-01 -2.53000377E-01  5.53630384E-02 -6.94491227E-17
 -2.48043037E-01 -3.11248335E-01  8.80610085E-02 -1.14548576E-16  0.00000000E+00
  0.00000000E+00  5.47243224E-01  0.00000000E+00  0.00000000E+00  0.00000000E+00
  6.75014500E-01  6.54302013E-03  3.63467211E-02  5.53630384E-02  5.54434067E-02
  1.20878874E-17  4.31728465E-02  8.80610085E-02  1.79365466E-01  1.99376212E-17
  0.00000000E+00  0.00000000E+00  0.00000000E+00  5.47243224E-01  0.00000000E+00
  0.00000000E+00  0.00000000E+00  6.75014500E-01 -8.53218151E-18 -4.78705848E-17
 -7.30309341E-17  1.27113155E-17  6.50795568E-02 -5.61586586E-17 -1.14548576E-16
  1.99376212E-17  1.94692824E-01  0.00000000E+00  0.00000000E+00  0.00000000E+00
  0.00000000E+00  5.47243224E-01  0.00000000E+00  0.00000000E+00  0.00000000E+00
  6.75014500E-01 -1.25584919E-03 -1.92722537E-02 -2.42428953E-02 -6.64603022E-03
 -8.84142300E-03 -2.54498380E-02  9.10934904E-03  2.49726810E-03  3.32219428E-03
 -2.35984133E-02  2.08817484E-03  7.07010496E-02  1.28664512E-01  1.14708633E-01
  1.29072363E-01  1.55726455E-01  2.83397043E-01  2.52657759E-01  1.39567828E+00
 -2.23128066E-03 -5.20419460E-03  1.67914560E-02  4.60326716E-03  6.12387107E-03
  1.58730418E-02  8.92492515E-02  2.44670950E-02  3.25493459E-02  1.98706062E-02
  1.03240445E-01  3.17189062E-02  5.77232958E-02  5.14622117E-02  1.54510295E-01
  7.99529600E-02  1.45501498E-01  1.29719358E-01  2.59735083E-01  2.41916700E-01
 -2.35984133E-02  2.08817484E-03 -7.07010496E-02 -1.28664512E-01  1.14708633E-01
  1.29072363E-01 -1.55726455E-01 -2.83397043E-01  2.52657759E-01 -1.25584919E-03
 -1.92722537E-02  2.42428953E-02  6.64603022E-03 -8.84142300E-03 -2.54498380E-02
 -9.10934904E-03 -2.49726810E-03  3.32219428E-03 -3.82834937E-03 -1.40346766E-02
  1.39567828E+00  1.98706062E-02  1.03240445E-01 -3.17189062E-02 -5.77232958E-02
  5.14622117E-02  1.54510295E-01 -7.99529600E-02 -1.45501498E-01  1.29719358E-01
 -2.23128066E-03 -5.20419460E-03 -1.67914560E-02 -4.60326716E-03  6.12387107E-03
  1.58730418E-02 -8.92492515E-02 -2.44670950E-02  3.25493459E-02 -1.40346766E-02
 -2.85702189E-03  2.59735083E-01  2.41916700E-01
Nuclear Attraction Matrix                  R   N=         253
 -6.55171636E+01 -5.86700727E+00 -1.45670317E+01 -9.01348709E-02 -6.15085365E-01
 -1.58349074E+01  2.89092722E-02  1.97033412E-01  2.22458796E-02 -1.55978284E+01
 -1.47502985E-02 -1.00452685E-01  1.45219554E-02  3.21943088E-02 -1.55828524E+01
 -5.99353670E+00 -1.01107035E+01 -5.98939918E-01  1.89363205E-01 -9.57571904E-02
 -1.06107455E+01 -1.24204226E-02 -4.08520139E-01 -5.96601314E+00  2.45515353E-02
  1.31774041E-02 -1.12118654E+00 -8.97178340E+00  3.98364554E-03  1.28829721E-01
  2.45515353E-02 -5.72133301E+00  2.99136968E-02  3.11152103E-01  1.22765401E-01
 -7.95668730E+00 -2.03256451E-03 -6.50414146E-02  1.31774041E-02  2.99136968E-02
 -5.70671820E+00 -1.46990938E-01  2.19598359E-02  7.01055337E-02 -7.91040347E+00
 -2.78325886E-08 -4.98299750E-02 -1.45718463E-01  2.53454012E-02 -2.32763545E-05
 -1.16441902E+00 -2.90880841E+00  5.05947588E-01 -3.96655211E-04 -6.55171636E+01
 -4.98299750E-02 -7.05088140E-01 -1.20097587E+00  2.09145995E-01 -2.74199849E-03
 -2.76001790E+00 -5.55510689E+00  9.57474474E-01 -1.49285991E-02 -5.86700727E+00
 -1.45670317E+01  1.45718463E-01  1.20097587E+00  1.84283971E+00 -3.74469367E-01
  4.63457700E-03  2.19182207E+00  2.88183164E+00 -7.60253309E-01  7.25399452E-03
  9.01348709E-02  6.15085365E-01 -1.58349074E+01 -2.53454012E-02 -2.09145995E-01
 -3.74469367E-01 -2.37237360E-01 -8.06665987E-04 -3.95678599E-01 -7.96393558E-01
 -1.34785816E+00 -6.26238010E-03 -2.89092722E-02 -1.97033412E-01  2.22458796E-02
 -1.55978284E+01 -2.32763545E-05 -2.74199849E-03 -4.63457700E-03  8.06665987E-04
 -3.02368653E-01 -2.15488692E-02 -4.76534937E-02  3.29447982E-03 -1.48390361E+00
 -1.47502985E-02 -1.00452685E-01 -1.45219554E-02 -3.21943088E-02 -1.55828524E+01
 -1.16441902E+00 -2.76001790E+00 -2.19182207E+00  3.95678599E-01 -2.15488692E-02
 -4.82395544E+00 -6.14582773E+00  1.06970500E+00 -5.66334136E-02 -5.99353670E+00
 -1.01107035E+01  5.98939918E-01 -1.89363205E-01 -9.57571904E-02 -1.06107455E+01
  2.90880841E+00  5.55510689E+00  2.88183164E+00 -7.96393558E-01  4.76534937E-02
  6.14582773E+00  3.12783398E+00 -1.22028964E+00  7.21522428E-02  1.24204226E-02
  4.08520139E-01 -5.96601314E+00  2.45515353E-02 -1.31774041E-02  1.12118654E+00
 -8.97178340E+00 -5.05947588E-01 -9.57474474E-01 -7.60253309E-01 -1.34785816E+00
 -3.29447982E-03 -1.06970500E+00 -1.22028964E+00 -3.40379980E+00 -1.25583759E-02
 -3.98364554E-03 -1.28829721E-01  2.45515353E-02 -5.72133301E+00 -2.99136968E-02
 -3.11152103E-01  1.22765401E-01 -7.95668730E+00 -3.96655211E-04 -1.49285991E-02
 -7.25399452E-03  6.26238010E-03 -1.48390361E+00 -5.66334136E-02 -7.21522428E-02
  1.25583759E-02 -3.61242720E+00 -2.03256451E-03 -6.50414146E-02 -1.31774041E-02
 -2.99136968E-02 -5.70671820E+00 -1.46990938E-01 -2.19598359E-02 -7.01055337E-02
 -7.91040347E+00 -5.62082391E-03 -9.02935936E-02 -1.51534452E-01 -3.39770673E-02
 -4.95207911E-02 -7.59776318E-01 -1.77298684E+00 -3.86141111E-01 -5.67510260E-01
 -1.04566770E+00 -2.73714899E+00 -1.03767425E+00 -2.08966044E+00 -1.85178511E+00
 -3.84234515E+00 -1.66722006E+00 -3.33025197E+00 -2.95322734E+00 -8.44237757E+00
 -6.00618056E-01 -1.45117845E+00 -9.68993959E-01 -1.89661776E-01 -3.10696867E-01
 -2.80447601E+00 -3.42671872E+00 -5.63690719E-01 -9.83328882E-01 -2.35258026E+00
 -4.66347132E+00 -3.37722820E-01 -1.21137893E+00 -1.04608259E+00 -6.20773495E+00
 -6.30834519E-01 -2.59793425E+00 -2.23811889E+00 -5.17243572E+00 -6.86023125E+00
 -1.04566770E+00 -2.73714899E+00  1.03767425E+00  2.08966044E+00 -1.85178511E+00
 -3.84234515E+00  1.66722006E+00  3.33025197E+00 -2.95322734E+00 -5.62082391E-03
 -9.02935936E-02  1.51534452E-01  3.39770673E-02 -4.95207911E-02 -7.59776318E-01
  1.77298684E+00  3.86141111E-01 -5.67510260E-01 -1.26119586E-02 -4.63385041E-01
 -8.44237757E+00 -2.35258026E+00 -4.66347132E+00  3.37722820E-01  1.21137893E+00
 -1.04608259E+00 -6.20773495E+00  6.30834519E-01  2.59793425E+00 -2.23811889E+00
 -6.00618056E-01 -1.45117845E+00  9.68993959E-01  1.89661776E-01 -3.10696867E-01
 -2.80447601E+00  3.42671872E+00  5.63690719E-01 -9.83328882E-01 -4.63385041E-01
 -1.76659689E+00 -5.17243572E+00 -6.86023125E+00
Core Hamiltonian Matrix                    R   N=         253
 -3.59770238E+01 -8.05241000E+00 -1.28558208E+01 -9.01348709E-02 -6.15085365E-01
 -1.15830303E+01  2.89092722E-02  1.97033412E-01  2.22458796E-02 -1.13459514E+01
 -1.47502985E-02 -1.00452685E-01  1.45219554E-02  3.21943088E-02 -1.13309753E+01
 -5.86225420E+00 -9.63065564E+00 -5.98939918E-01  1.89363205E-01 -9.57571904E-02
 -1.02057368E+01 -1.24204226E-02 -4.08520139E-01 -5.41876992E+00  2.45515353E-02
  1.31774041E-02 -1.12118654E+00 -8.29676890E+00  3.98364554E-03  1.28829721E-01
  2.45515353E-02 -5.17408979E+00  2.99136968E-02  3.11152103E-01  1.22765401E-01
 -7.28167280E+00 -2.03256451E-03 -6.50414146E-02  1.31774041E-02  2.99136968E-02
 -5.15947498E+00 -1.46990938E-01  2.19598359E-02  7.01055337E-02 -7.23538897E+00
 -2.22430692E-07 -6.21341990E-02 -1.71937642E-01  2.99089503E-02 -2.32763545E-05
 -1.16649676E+00 -2.87121648E+00  4.99404568E-01 -3.96655211E-04 -3.59770238E+01
 -6.21341990E-02 -7.85103673E-01 -1.26411098E+00  2.20134904E-01 -2.74199849E-03
 -2.74248804E+00 -5.34628232E+00  9.21127753E-01 -1.49285991E-02 -8.05241000E+00
 -1.28558208E+01  1.71937642E-01  1.26411098E+00  1.81964326E+00 -3.74593640E-01
  4.63457700E-03  2.10890925E+00  2.62883126E+00 -7.04890271E-01  7.25399452E-03
  9.01348709E-02  6.15085365E-01 -1.15830303E+01 -2.99089503E-02 -2.20134904E-01
 -3.74593640E-01 -2.61126165E-01 -8.06665987E-04 -3.81247303E-01 -7.41030519E-01
 -1.29241475E+00 -6.26238010E-03 -2.89092722E-02 -1.97033412E-01  2.22458796E-02
 -1.13459514E+01 -2.32763545E-05 -2.74199849E-03 -4.63457700E-03  8.06665987E-04
 -3.26279088E-01 -2.15488692E-02 -4.76534937E-02  3.29447982E-03 -1.41882405E+00
 -1.47502985E-02 -1.00452685E-01 -1.45219554E-02 -3.21943088E-02 -1.13309753E+01
 -1.16649676E+00 -2.74248804E+00 -2.10890925E+00  3.81247303E-01 -2.15488692E-02
 -4.74627626E+00 -5.89778469E+00  1.02653215E+00 -5.66334136E-02 -5.86225420E+00
 -9.63065564E+00  5.98939918E-01 -1.89363205E-01 -9.57571904E-02 -1.02057368E+01
  2.87121648E+00  5.34628232E+00  2.62883126E+00 -7.41030519E-01  4.76534937E-02
  5.89778469E+00  2.81658565E+00 -1.13222863E+00  7.21522428E-02  1.24204226E-02
  4.08520139E-01 -5.41876992E+00  2.45515353E-02 -1.31774041E-02  1.12118654E+00
 -8.29676890E+00 -4.99404568E-01 -9.21127753E-01 -7.04890271E-01 -1.29241475E+00
 -3.29447982E-03 -1.02653215E+00 -1.13222863E+00 -3.22443433E+00 -1.25583759E-02
 -3.98364554E-03 -1.28829721E-01  2.45515353E-02 -5.17408979E+00 -2.99136968E-02
 -3.11152103E-01  1.22765401E-01 -7.28167280E+00 -3.96655211E-04 -1.49285991E-02
 -7.25399452E-03  6.26238010E-03 -1.41882405E+00 -5.66334136E-02 -7.21522428E-02
  1.25583759E-02 -3.41773438E+00 -2.03256451E-03 -6.50414146E-02 -1.31774041E-02
 -2.99136968E-02 -5.15947498E+00 -1.46990938E-01 -2.19598359E-02 -7.01055337E-02
 -7.23538897E+00 -6.87667310E-03 -1.09565847E-01 -1.75777348E-01 -4.06230975E-02
 -5.83622141E-02 -7.85226156E-01 -1.76387749E+00 -3.83643843E-01 -5.64188066E-01
 -1.06926612E+00 -2.73506081E+00 -9.66973203E-01 -1.96099593E+00 -1.73707648E+00
 -3.71327279E+00 -1.51149360E+00 -3.04685493E+00 -2.70056958E+00 -7.04669929E+00
 -6.02849336E-01 -1.45638264E+00 -9.52202503E-01 -1.85058509E-01 -3.04572996E-01
 -2.78860296E+00 -3.33746946E+00 -5.39223624E-01 -9.50779536E-01 -2.33270966E+00
 -4.56023087E+00 -3.06003914E-01 -1.15365563E+00 -9.94620379E-01 -6.05322466E+00
 -5.50881559E-01 -2.45243275E+00 -2.10839953E+00 -4.91270064E+00 -6.61831455E+00
 -1.06926612E+00 -2.73506081E+00  9.66973203E-01  1.96099593E+00 -1.73707648E+00
 -3.71327279E+00  1.51149360E+00  3.04685493E+00 -2.70056958E+00 -6.87667310E-03
 -1.09565847E-01  1.75777348E-01  4.06230975E-02 -5.83622141E-02 -7.85226156E-01
  1.76387749E+00  3.83643843E-01 -5.64188066E-01 -1.64403079E-02 -4.77419718E-01
 -7.04669929E+00 -2.33270966E+00 -4.56023087E+00  3.06003914E-01  1.15365563E+00
 -9.94620379E-01 -6.05322466E+00  5.50881559E-01  2.45243275E+00 -2.10839953E+00
 -6.02849336E-01 -1.45638264E+00  9.52202503E-01  1.85058509E-01 -3.04572996E-01
 -2.78860296E+00  3.33746946E+00  5.39223624E-01 -9.50779536E-01 -4.77419718E-01
 -1.76945391E+00 -4.91270064E+00 -6.61831455E+00
Multipole Matrix (1,0,0)                   R   N=         253
 -1.22591555E+00 -2.86484089E-01 -1.22591555E+00  7.27077806E-02  4.96075284E-01
 -1.22591555E+00  0.00000000E+00  0.00000000E+00  0.00000000E+00 -1.22591555E+00
  0.00000000E+00  0.00000000E+00  0.00000000E+00  0.00000000E+00 -1.22591555E+00
 -2.05070858E-01 -9.36159097E-01  4.82583279E-01  0.00000000E+00  0.00000000E+00
 -1.22591555E+00  1.00190010E-02  3.29089724E-01 -6.14821952E-01  0.00000000E+00
  0.00000000E+00  9.62240114E-01 -1.22591555E+00  0.00000000E+00  0.00000000E+00
  0.00000000E+00 -6.14821952E-01  0.00000000E+00  0.00000000E+00  0.00000000E+00
 -1.22591555E+00  0.00000000E+00  0.00000000E+00  0.00000000E+00  0.00000000E+00
 -6.14821952E-01  0.00000000E+00  0.00000000E+00  0.00000000E+00 -1.22591555E+00
  1.41363874E-27  1.59020863E-03  4.61099626E-03 -7.80353661E-04  1.01779771E-18
  3.80273920E-02  9.58990793E-02 -1.63419965E-02  2.13190977E-17  1.22591555E+00
 -1.59020863E-03  1.08420217E-19  1.33595080E-02  8.86358708E-04 -1.09762101E-18
  1.42451127E-01  3.68991652E-01 -4.88554558E-02  6.43205007E-17  2.86484089E-01
  1.22591555E+00  4.61099626E-03  1.33595080E-02  2.60208521E-18 -5.38658136E-03
  6.79882863E-18  1.35396345E-03  3.57155952E-02 -1.36131054E-04  1.56504056E-19
  7.27077806E-02  4.96075284E-01  1.22591555E+00 -7.80353661E-04  8.86358708E-04
  5.38658136E-03 -2.16840434E-19  3.61969387E-20  2.15698509E-02  5.54252982E-02
  8.95132104E-02  1.02379824E-17  0.00000000E+00  0.00000000E+00  0.00000000E+00
  1.22591555E+00  1.01779771E-18 -1.09762101E-18 -6.79882863E-18 -3.61969387E-20
 -1.08420217E-19 -2.55813851E-17 -6.58071107E-17  9.13971202E-18  9.72716772E-02
  0.00000000E+00  0.00000000E+00  0.00000000E+00  0.00000000E+00  1.22591555E+00
 -3.80273920E-02 -1.42451127E-01  1.35396345E-03  2.15698509E-02 -2.55813851E-17
  0.00000000E+00  4.17010398E-01  0.00000000E+00  0.00000000E+00  2.05070858E-01
  9.36159097E-01  4.82583279E-01  0.00000000E+00  0.00000000E+00  1.22591555E+00
  9.58990793E-02  3.68991652E-01 -3.57155952E-02 -5.54252982E-02  6.58071107E-17
  4.17010398E-01  0.00000000E+00 -9.24714406E-02  1.20285607E-16  1.00190010E-02
  3.29089724E-01  6.14821952E-01  0.00000000E+00  0.00000000E+00  9.62240114E-01
  1.22591555E+00 -1.63419965E-02 -4.88554558E-02  1.36131054E-04 -8.95132104E-02
 -9.13971202E-18  0.00000000E+00  9.24714406E-02  0.00000000E+00  0.00000000E+00
  0.00000000E+00  0.00000000E+00  0.00000000E+00  6.14821952E-01  0.00000000E+00
  0.00000000E+00  0.00000000E+00  1.22591555E+00  2.13190977E-17  6.43205007E-17
 -1.56504056E-19 -1.02379824E-17 -9.72716772E-02  0.00000000E+00 -1.20285607E-16
  0.00000000E+00  0.00000000E+00  0.00000000E+00  0.00000000E+00  0.00000000E+00
  0.00000000E+00  6.14821952E-01  0.00000000E+00  0.00000000E+00  0.00000000E+00
  1.22591555E+00 -1.84735535E-04  1.06787482E-04  2.87194282E-03 -7.14682029E-05
 -9.50763978E-05  8.01920821E-02  2.33175056E-01  5.24835531E-02  6.98205212E-02
  3.88191956E-02  3.45962319E-01  2.55229345E-01  2.79377941E-01  2.49074598E-01
  7.11222228E-01  5.97744969E-01  6.95821107E-01  6.20347341E-01  1.93686030E+00
 -1.99501575E-02 -8.69409845E-02  1.19046411E-02 -1.68240511E-02 -2.23815643E-02
 -1.21382633E-02  3.23604713E-01 -4.09007227E-03 -5.44115177E-03  8.23953677E-02
  4.89356261E-01  3.18851534E-01  1.34526317E-01  1.19934624E-01  9.96337439E-01
  1.07996540E+00  5.00960415E-01  4.46622642E-01  1.27501974E+00  1.93686030E+00
 -3.88191956E-02 -3.45962319E-01  2.55229345E-01  2.79377941E-01 -2.49074598E-01
 -7.11222228E-01  5.97744969E-01  6.95821107E-01 -6.20347341E-01  1.84735535E-04
 -1.06787482E-04  2.87194282E-03 -7.14682029E-05  9.50763978E-05 -8.01920821E-02
  2.33175056E-01  5.24835531E-02 -6.98205212E-02  9.31736242E-21 -5.99633044E-02
 -1.93686030E+00 -8.23953677E-02 -4.89356261E-01  3.18851534E-01  1.34526317E-01
 -1.19934624E-01 -9.96337439E-01  1.07996540E+00  5.00960415E-01 -4.46622642E-01
  1.99501575E-02  8.69409845E-02  1.19046411E-02 -1.68240511E-02  2.23815643E-02
  1.21382633E-02  3.23604713E-01 -4.09007227E-03  5.44115177E-03  5.99633044E-02
  0.00000000E+00 -1.27501974E+00 -1.93686030E+00
Multipole Matrix (0,1,0)                   R   N=         253
  2.13375326E-01  4.98636598E-02  2.13375326E-01  0.00000000E+00  0.00000000E+00
  2.13375326E-01  7.27077806E-02  4.96075284E-01  0.00000000E+00  2.13375326E-01
  0.00000000E+00  0.00000000E+00  0.00000000E+00  0.00000000E+00  2.13375326E-01
  3.56933732E-02  1.62942099E-01  0.00000000E+00  4.82583279E-01  0.00000000E+00
  2.13375326E-01  0.00000000E+00  0.00000000E+00  1.07012130E-01  0.00000000E+00
  0.00000000E+00  0.00000000E+00  2.13375326E-01  1.00190010E-02  3.29089724E-01
  0.00000000E+00  1.07012130E-01  0.00000000E+00  9.62240114E-01  0.00000000E+00
  2.13375326E-01  0.00000000E+00  0.00000000E+00  0.00000000E+00  0.00000000E+00
  1.07012130E-01  0.00000000E+00  0.00000000E+00  0.00000000E+00  2.13375326E-01
 -3.96137431E-25 -2.76781940E-04 -7.80353661E-04  2.63416302E-04 -1.77151614E-19