
Running Job 1 of 1 input
qchem input_19201.0 /aimm/scratch/qchem19201/ 1
/home/epif/aimm/qcprog.exe_s input_19201.0 /aimm/scratch/qchem19201/
8388608
                  Welcome to Q-Chem
     A Quantum Leap Into The Future Of Chemistry


 Q-Chem 6.1, Q-Chem, Inc., Pleasanton, CA (2023)

 E. Epifanovsky,  A. T. B. Gilbert,  Xintian Feng,  Joonho Lee,  Yuezhi Mao,  
 N. Mardirossian,  P. Pokhilko,  A. White,  M. Wormit,  M. P. Coons,  
 A. L. Dempwolff,  Zhengting Gan,  D. Hait,  P. R. Horn,  L. D. Jacobson,  
 I. Kaliman,  J. Kussmann,  A. W. Lange,  Ka Un Lao,  D. S. Levine,  Jie Liu,  
 S. C. McKenzie,  A. F. Morrison,  K. D. Nanda,  F. Plasser,  D. R. Rehn,  
 M. L. Vidal,  Zhi-Qiang You,  Ying Zhu,  B. Alam,  B. Albrecht,  
 A. Aldossary,  E. Alguire,  J. H. Andersen,  V. Athavale,  D. Barton,  
 K. Begam,  A. Behn,  N. Bellonzi,  Y. A. Bernard,  E. J. Berquist,  
 H. Burton,  A. Carreras,  K. Carter-Fenk,  Mathew Chow,  Romit Chakraborty,  
 Chandrima Chakravarty,  Junhan Chen,  A. D. Chien,  K. D. Closser,  
 V. Cofer-Shabica,  L. Cunha,  S. Dasgupta,  Jia Deng,  M. de Wergifosse,  
 M. Diedenhofen,  Hainam Do,  S. Ehlert,  Po-Tung Fang,  S. Fatehi,  
 Qingguo Feng,  T. Friedhoff,  Thomas Froitzheim,  B. Ganoe,  J. Gayvert,  
 Qinghui Ge,  G. Gidofalvi,  M. Gimferrer,  M. Goldey,  Montgomery Gray,  
 J. Gomes,  C. Gonzalez-Espinoza,  S. Gulania,  A. Gunina,  J. A. Gyamfi,  
 M. W. D. Hanson-Heine,  P. H. P. Harbach,  A. W. Hauser,  M. F. Herbst,  
 M. Hernandez Vera,  M. Hodecker,  Z. C. Holden,  S. Houck,  Xunkun Huang,  
 Kerwin Hui,  B. C. Huynh,  K. Ikeda,  M. Ivanov,  Hyunjun Ji,  Zuxin Jin,  
 Hanjie Jiang,  Subrata Jana,  B. Kaduk,  S. Kaehler,  R. Kang,  
 K. Khistyaev,  Jaehoon Kim,  Yongbin Kim,  P. Klunzinger,  Z. Koczor-Benda,  
 Joong Hoon Koh,  D. Kosenkov,  Saikiran Kotaru,  L. Koulias,  T. Kowalczyk,  
 C. M. Krauter,  K. Kue,  A. Kunitsa,  T. Kus,  A. Landau,  K. V. Lawler,  
 D. Lefrancois,  S. Lehtola,  Rain Li,  Shaozhi Li,  Yi-Pei Li,  
 Jiashu Liang,  M. Liebenthal,  Hung-Hsuan Lin,  You-Sheng Lin,  Fenglai Liu,  
 Kuan-Yu Liu,  Xiao Liu,  M. Loipersberger,  A. Luenser,  C. Malbon,  
 A. Manjanath,  P. Manohar,  E. Mansoor,  S. F. Manzer,  Shan-Ping Mao,  
 A. V. Marenich,  T. Markovich,  S. Mason,  F. Matz,  S. A. Maurer,  
 P. F. McLaughlin,  M. F. S. J. Menger,  J.-M. Mewes,  S. A. Mewes,  
 P. Morgante,  Mohammad Mostafanejad,  J. W. Mullinax,  K. J. Oosterbaan,  
 G. Paran,  V. Parravicini,  Alexander C. Paul,  Suranjan K. Paul,  
 F. Pavosevic,  Zheng Pei,  S. Prager,  E. I. Proynov,  E. Ramos,  B. Rana,  
 A. E. Rask,  A. Rettig,  R. M. Richard,  F. Rob,  E. Rossomme,  T. Scheele,  
 M. Scheurer,  M. Schneider,  P. E. Schneider,  Tim K. Schramm,  N. Sergueev,  
 S. M. Sharada,  M. Sharma,  Hengyuan Shen,  W. Skomorowski,  D. W. Small,  
 C. J. Stein,  Alistair J. Sterling,  Yingli Su,  Yu-Chuan Su,  
 E. J. Sundstrom,  J. Talbot,  Zhen Tao,  J. Thirman,  Hung-Yi Tsai,  
 T. Tsuchimochi,  N. M. Tubman,  C. Utku,  S. P. Veccham,  O. Vydrov,  
 J. Wenzel,  Jonathan Wong,  J. Witte,  A. Yamada,  Chou-Hsun Yang,  Kun Yao,  
 S. Yeganeh,  S. R. Yost,  A. Zech,  F. Zeller,  Igor Ying Zhang,  
 Xing Zhang,  Yu Zhang,  D. Zuev,  A. Aspuru-Guzik,  A. T. Bell,  
 N. A. Besley,  K. B. Bravaya,  B. R. Brooks,  D. Casanova,  Jeng-Da Chai,  
 Hsing-Ta Chen,  S. Coriani,  C. J. Cramer,  A. E. DePrince, III,  
 R. A. DiStasio Jr.,  A. Dreuw,  B. D. Dunietz,  T. R. Furlani,  
 W. A. Goddard III,  S. Grimme,  S. Hammes-Schiffer,  T. Head-Gordon,  
 W. J. Hehre,  Chao-Ping Hsu,  T.-C. Jagau,  Yousung Jung,  A. Klamt,  
 Jing Kong,  D. S. Lambrecht,  Xiangyuan Li,  WanZhen Liang,  N. J. Mayhall,  
 C. W. McCurdy,  J. B. Neaton,  T. Neudecker,  C. Ochsenfeld,  
 J. A. Parkhill,  R. Peverati,  V. A. Rassolov,  Haisheng Ren,  Yihan Shao,  
 L. V. Slipchenko,  R. P. Steele,  J. E. Subotnik,  A. J. W. Thom,  
 A. Tkatchenko,  D. G. Truhlar,  T. Van Voorhis,  Fan Wang,  
 T. A. Wesolowski,  K. B. Whaley,  H. L. Woodcock III,  P. M. Zimmerman,  
 S. Faraji,  P. M. W. Gill,  M. Head-Gordon,  J. M. Herbert,  A. I. Krylov

 Contributors to earlier versions of Q-Chem not listed above: 
 R. D. Adamson,  B. Austin,  R. Baer,  J. Baker,  G. J. O. Beran,  
 K. Brandhorst,  S. T. Brown,  E. F. C. Byrd,  Arup K. Chakraborty,  
 G. K. L. Chan,  Chun-Min Chang,  Yunqing Chen,  C.-L. Cheng,  
 Siu Hung Chien,  D. M. Chipman,  D. L. Crittenden,  H. Dachsel,  
 R. J. Doerksen,  A. D. Dutoi,  R. G. Edgar,  J. Fosso-Tande,  
 L. Fusti-Molnar,  D. Ghosh,  A. Ghysels,  A. Golubeva-Zadorozhnaya,  
 J. Gonthier,  M. S. Gordon,  S. R. Gwaltney,  G. Hawkins,  J. E. Herr,  
 A. Heyden,  S. Hirata,  E. G. Hohenstein,  G. Kedziora,  F. J. Keil,  
 C. Kelley,  Jihan Kim,  R. A. King,  R. Z. Khaliullin,  P. P. Korambath,  
 W. Kurlancheek,  A. Laurent,  A. M. Lee,  M. S. Lee,  S. V. Levchenko,  
 Ching Yeh Lin,  D. Liotard,  E. Livshits,  R. C. Lochan,  I. Lotan,  
 L. A. Martinez-Martinez,  P. E. Maslen,  N. Nair,  D. P. O'Neill,  
 D. Neuhauser,  E. Neuscamman,  C. M. Oana,  R. Olivares-Amaya,  R. Olson,  
 T. M. Perrine,  B. Peters,  P. A. Pieniazek,  A. Prociuk,  Y. M. Rhee,  
 J. Ritchie,  M. A. Rohrdanz,  E. Rosta,  N. J. Russ,  H. F. Schaefer III,  
 M. W. Schmidt,  N. E. Schultz,  S. Sharma,  N. Shenvi,  C. D. Sherrill,  
 A. C. Simmonett,  A. Sodt,  T. Stein,  D. Stuck,  K. S. Thanthiriwatte,  
 V. Vanovschi,  L. Vogt,  Tao Wang,  A. Warshel,  M. A. Watson,  
 C. F. Williams,  Q. Wu,  X. Xu,  Jun Yang,  W. Zhang,  Yan Zhao

   Please cite Q-Chem as follows:
  "Software for the frontiers of quantum chemistry:
   An overview of developments in the Q-Chem 5 package"
   J. Chem. Phys. 155, 084801 (2021)
   https://doi.org/10.1063/5.0055522 (open access)

 Q-Chem 6.1.1 for Intel X86 EM64T Linux

 Parts of Q-Chem use Armadillo 9.900.5 (Nocturnal Misbehaviour).
 http://arma.sourceforge.net/

 Q-Chem begins on Wed Apr 24 15:10:46 2024  

 Host: iqmol
0

     Scratch files written to /aimm/scratch/qchem19201//
 Jan1824 |scratch|qcdevops|jenkins|workspace|build_RNUM 6466   
 Processing $rem in /opt/qchem/qc611/config/preferences:
 Processing $rem in /home/epif/.qchemrc:

 Checking the input file for inconsistencies... 	...done.

--------------------------------------------------------------
User input:
--------------------------------------------------------------
$molecule
0 1
O   -0.6381366    2.8321475   -0.9541590
O    0.5310458    2.4071658   -0.5219722
H    0.3422338    2.0036088    0.3636655
H   -0.9354093    2.1417287   -1.6005435
$end

$rem
BASIS  =  6-31G
GUI  =  2
JOB_TYPE  =  Optimization
METHOD  =  B3LYp
SCF_CONVERGENCE  =  8
$end

--------------------------------------------------------------
 Atom   2: (  0.6487265721, -0.1129133502, -0.0678210649)
         ->(  0.6487265837, -0.1129132835, -0.0678211424)
 Atom   4: ( -1.0249421728, -0.5717382624,  0.5425690530)
         ->( -1.0249422653, -0.5717387965,  0.5425686053)
 ----------------------------------------------------------------
             Standard Nuclear Orientation (Angstroms)
    I     Atom           X                Y                Z
 ----------------------------------------------------------------
    1      O      -0.6487265837     0.1129132835    -0.0678211424
    2      O       0.6487265837    -0.1129132835    -0.0678211424
    3      H       1.0249422653     0.5717387965     0.5425686053
    4      H      -1.0249422653    -0.5717387965     0.5425686053
 ----------------------------------------------------------------
 Molecular Point Group                 C2    NOp =  2
 Largest Abelian Subgroup              C2    NOp =  2
 Nuclear Repulsion Energy =          39.08453988 hartrees
 There are        9 alpha and        9 beta electrons
 Requested basis set is 6-31G
 There are 10 shells and 22 basis functions

 Total QAlloc Memory Limit   8000 MB
 Mega-Array Size       188 MB
 MEM_STATIC part       192 MB

 -----------------------------------------------------------------------
                STARTING GEOMETRY OPTIMIZER USING LIBOPT3
                by Peter F. McLaughlin, Yu Zhang, Evgeny Epifanovsky
 -----------------------------------------------------------------------

              Initial Energy and Gradient Calculation
   -- Checking Topology for Ill-Behaving Coordinates --

 -------------------------------------------
   Coordinate       |  Removed | Additions 
 -------------------------------------------
	Bonds                     0          0
	Angles                    0          0
	Torsions                  0          0
	Co-Linear Type5s          0          0
	Co-Linear Type6s          0          0
 -------------------------------------------
     Done Checking Topology
 ----------------------------------------------------------------
             Standard Nuclear Orientation (Angstroms)
    I     Atom           X                Y                Z
 ----------------------------------------------------------------
    1      O      -0.6487265704     0.1129133596    -0.0678210831
    2      O       0.6487265704    -0.1129133596    -0.0678210831
    3      H       1.0249423324     0.5717386762     0.5425686646
    4      H      -1.0249423324    -0.5717386762     0.5425686646
 ----------------------------------------------------------------
 Molecular Point Group                 C2    NOp =  2
 Largest Abelian Subgroup              C2    NOp =  2
 Nuclear Repulsion Energy =          39.08453916 hartrees
 There are        9 alpha and        9 beta electrons

                       Distance Matrix (Angstroms)
             O (  1)   O (  2)   H (  3)
   O (  2)  1.316960
   H (  3)  1.839637  0.991394
   H (  4)  0.991394  1.839637  2.347247
 
 Requested basis set is 6-31G
 There are 10 shells and 22 basis functions
 A cutoff of  1.0D-12 yielded     55 shell pairs
 There are       277 function pairs
 Smallest overlap matrix eigenvalue = 2.81E-02

 Scale SEOQF with 1.000000e+00/1.000000e+00/1.000000e+00

 Standard Electronic Orientation quadrupole field applied
 Nucleus-field energy     =     0.0000000031 hartrees
 Guess from superposition of atomic densities
 Warning:  Energy on first SCF cycle will be non-variational
 SAD guess density has 18.000000 electrons

 -----------------------------------------------------------------------
  General SCF calculation program by
  Eric Jon Sundstrom, Paul Horn, Yuezhi Mao, Dmitri Zuev, Alec White,
  David Stuck, Shaama M.S., Shane Yost, Joonho Lee, David Small,
  Daniel Levine, Susi Lehtola, Hugh Burton, Evgeny Epifanovsky,
  Bang C. Huynh
 -----------------------------------------------------------------------
 Exchange:     0.2000 Hartree-Fock + 0.0800 Slater + 0.7200 B88
 Correlation:  0.1900 VWN1RPA + 0.8100 LYP
 Using SG-1 standard quadrature grid
 A restricted SCF calculation will be
 performed using DIIS
 SCF converges when DIIS error is below 1.0e-08
 ---------------------------------------
  Cycle       Energy         DIIS error
 ---------------------------------------
    1    -151.7842371599      1.94e-01  
    2    -151.4309767968      2.47e-02  
    3    -151.4267803776      2.89e-02  
    4    -151.4655584449      1.22e-03  
    5    -151.4656330043      7.14e-05  
    6    -151.4656332432      4.43e-06  
    7    -151.4656332443      4.18e-07  
    8    -151.4656332443      5.24e-08  
    9    -151.4656332443      3.40e-09  Convergence criterion met
 ---------------------------------------
 SCF time:   CPU 0.35s  wall 0.00s 
 SCF   energy =  -151.46563324
 Total energy =  -151.46563324
 
 --------------------------------------------------------------
             Orbital Energies (a.u.) and Symmetries
 --------------------------------------------------------------
 
 Alpha MOs, Restricted
 -- Occupied --                  
-19.196 -19.196  -1.201  -0.881  -0.578  -0.490  -0.431  -0.287
  1 B     1 A     2 A     2 B     3 A     3 B     4 A     5 A                  
 -0.268
  4 B                                                                          
 -- Virtual --                   
  0.053   0.056   0.162   0.777   0.787   0.850   0.869   0.977
  6 A     5 B     6 B     7 A     7 B     8 B     8 A     9 B                  
  0.999   1.037   1.062   1.393   1.622
  9 A    10 A    10 B    11 A    11 B                                          
 
 Beta MOs, Restricted
 -- Occupied --                  
-19.196 -19.196  -1.201  -0.881  -0.578  -0.490  -0.431  -0.287
  1 B     1 A     2 A     2 B     3 A     3 B     4 A     5 A                  
 -0.268
  4 B                                                                          
 -- Virtual --                   
  0.053   0.056   0.162   0.777   0.787   0.850   0.869   0.977
  6 A     5 B     6 B     7 A     7 B     8 B     8 A     9 B                  
  0.999   1.037   1.062   1.393   1.622
  9 A    10 A    10 B    11 A    11 B                                          
 --------------------------------------------------------------
 
          Ground-State Mulliken Net Atomic Charges

     Atom                 Charge (a.u.)
  ----------------------------------------
      1 O                    -0.379231
      2 O                    -0.379231
      3 H                     0.379231
      4 H                     0.379231
  ----------------------------------------
  Sum of atomic charges =     0.000000

 -----------------------------------------------------------------
                    Cartesian Multipole Moments
 -----------------------------------------------------------------
    Charge (ESU x 10^10)
                -0.0000
    Dipole Moment (Debye)
         X       0.0000      Y      -0.0000      Z       2.5678
       Tot       2.5678
    Quadrupole Moments (Debye-Ang)
        XX     -10.5060     XY       3.0271     YY     -10.9782
        XZ      -0.0000     YZ      -0.0000     ZZ     -11.1042
    Octopole Moments (Debye-Ang^2)
       XXX      -0.0000    XXY      -0.0000    XYY      -0.0000
       YYY      -0.0000    XXZ       2.9854    XYZ       1.2340
       YYZ       0.8195    XZZ      -0.0000    YZZ      -0.0000
       ZZZ       1.5339
    Hexadecapole Moments (Debye-Ang^3)
      XXXX     -36.7093   XXXY       3.4324   XXYY      -8.0081
      XYYY       1.9403   YYYY     -10.5394   XXXZ      -0.0000
      XXYZ      -0.0000   XYYZ      -0.0000   YYYZ      -0.0000
      XXZZ      -8.1079   XYZZ       0.9828   YYZZ      -3.1304
      XZZZ      -0.0000   YZZZ      -0.0000   ZZZZ      -9.9876
 -----------------------------------------------------------------
 Calculating analytic gradient of the SCF energy
 Gradient of SCF Energy
            1           2           3           4
    1   0.1426512  -0.1426512  -0.0056323   0.0056323
    2  -0.0144010   0.0144010   0.0034625  -0.0034625
    3  -0.0049595  -0.0049595   0.0049595   0.0049595
 Max gradient component =       1.427E-01
 RMS gradient           =       5.867E-02
 Gradient time:  CPU 0.09 s  wall 0.09 s

 *****************************************************
             Starting BFGS Algorithm
 *****************************************************
            LIBOPT3 RUN PARAMETERS

  Geometry Optimization Coordinates :
	Delocalized Natural Internal Coordinates

  Step Length Selection Method :
	Eigenvector Following Algorithm

  Step Length Limiter :
	Root-Mean-Square of Gradient

  Convergence Criteria :
	Max Gradient Component    	3.00000000e-04
	Max Displacement Component	1.20000000e-03
	Absolute Energy Difference	1.00000000e-06

  Initial Hessian :
	Approximate Hessian - Simple Internal Coordinate Scaled

  Type of Verification :
	Verify with final updated Hessian
 *****************************************************

	OPTIMIZATION CYCLE:	1

 Scaling Magnitude of Eigenvalues
 	Minimum: -25.00000000	 Maximum: 25.00000000
 6 Hessian Eigenvalues to form next step
   0.10000000   0.20000000   0.20000000   0.50000000   0.50000000
   0.50000000

 Minimum Search taking a RFO step
 Searching for Lambda that minimizes along all modes
	Value of Lambda   -0.04266165
	Norm  of Stepsize  0.28751874
	RMS   of Stepsize  0.11737903

	Performing Iterative Coordinate Back-Transformation

	  Starting from Previous Position

	  iter:	0	rms: 9.7856648391e-02	maxdev: 1.7421026124e-01
	  iter:	1	rms: 1.5448832709e-03	maxdev: 2.6300200522e-03
	  iter:	2	rms: 3.1985512506e-06	maxdev: 5.3693343512e-06
	  iter:	3	rms: 3.9482203565e-12	maxdev: 8.3902686735e-12	 Success!

	Finished Iterative Coordinate Back-Transformation
 ----------------------------------------------------------------
             Standard Nuclear Orientation (Angstroms)
    I     Atom           X                Y                Z
 ----------------------------------------------------------------
    1      O      -0.7256940380     0.0895715761    -0.0566275155
    2      O       0.7256940380    -0.0895715761    -0.0566275155
    3      H       1.1184979611     0.6006734867     0.5313749784
    4      H      -1.1184979611    -0.6006734867     0.5313749784
 ----------------------------------------------------------------
 Molecular Point Group                 C2    NOp =  2
 Largest Abelian Subgroup              C2    NOp =  2
 Nuclear Repulsion Energy =          36.16449246 hartrees
 There are        9 alpha and        9 beta electrons

                       Distance Matrix (Angstroms)
             O (  1)   O (  2)   H (  3)
   O (  2)  1.462402
   H (  3)  2.002003  0.988170
   H (  4)  0.988170  2.002003  2.539170
 
 Applying Cartesian multipole field
    Component          Value
    ---------          -----
     (2,0,0)        1.00000E-10
     (0,2,0)        2.00000E-10
     (0,0,2)       -3.00000E-10
 Nucleus-field energy     = 3.8496367516e-09 hartrees
 Requested basis set is 6-31G
 There are 10 shells and 22 basis functions
 A cutoff of  1.0D-12 yielded     55 shell pairs
 There are       277 function pairs
 Smallest overlap matrix eigenvalue = 4.32E-02
 Guess MOs from SCF MO coefficient file

 -----------------------------------------------------------------------
  General SCF calculation program by
  Eric Jon Sundstrom, Paul Horn, Yuezhi Mao, Dmitri Zuev, Alec White,
  David Stuck, Shaama M.S., Shane Yost, Joonho Lee, David Small,
  Daniel Levine, Susi Lehtola, Hugh Burton, Evgeny Epifanovsky,
  Bang C. Huynh
 -----------------------------------------------------------------------
 Exchange:     0.2000 Hartree-Fock + 0.0800 Slater + 0.7200 B88
 Correlation:  0.1900 VWN1RPA + 0.8100 LYP
 Using SG-1 standard quadrature grid
 A restricted SCF calculation will be
 performed using DIIS
 SCF converges when DIIS error is below 1.0e-08
 ---------------------------------------
  Cycle       Energy         DIIS error
 ---------------------------------------
    1    -151.4749600284      1.11e-02  
    2    -151.4849234072      1.88e-03  
    3    -151.4849853648      1.81e-03  
    4    -151.4851347192      1.94e-04  
    5    -151.4851370735      1.22e-05  
    6    -151.4851371076      1.17e-06  
    7    -151.4851371079      5.30e-08  
    8    -151.4851371079      7.75e-09  Convergence criterion met
 ---------------------------------------
 SCF time:   CPU 0.31s  wall 0.00s 
 SCF   energy =  -151.48513711
 Total energy =  -151.48513711
 
 --------------------------------------------------------------
             Orbital Energies (a.u.) and Symmetries
 --------------------------------------------------------------
 
 Alpha MOs, Restricted
 -- Occupied --                  
-19.204 -19.204  -1.118  -0.910  -0.552  -0.463  -0.404  -0.301
  1 A     1 B     2 A     2 B     3 A     3 B     4 A     5 A                  
 -0.285
  4 B                                                                          
 -- Virtual --                   
 -0.008   0.058   0.109   0.773   0.778   0.842   0.862   0.981
  5 B     6 A     6 B     7 A     7 B     8 B     8 A     9 B                  
  1.025   1.062   1.083   1.355   1.582
  9 A    10 B    10 A    11 A    11 B                                          
 
 Beta MOs, Restricted
 -- Occupied --                  
-19.204 -19.204  -1.118  -0.910  -0.552  -0.463  -0.404  -0.301
  1 A     1 B     2 A     2 B     3 A     3 B     4 A     5 A                  
 -0.285
  4 B                                                                          
 -- Virtual --                   
 -0.008   0.058   0.109   0.773   0.778   0.842   0.862   0.981
  5 B     6 A     6 B     7 A     7 B     8 B     8 A     9 B                  
  1.025   1.062   1.083   1.355   1.582
  9 A    10 B    10 A    11 A    11 B                                          
 --------------------------------------------------------------
 
          Ground-State Mulliken Net Atomic Charges

     Atom                 Charge (a.u.)
  ----------------------------------------
      1 O                    -0.386008
      2 O                    -0.386008
      3 H                     0.386008
      4 H                     0.386008
  ----------------------------------------
  Sum of atomic charges =     0.000000

 -----------------------------------------------------------------
                    Cartesian Multipole Moments
 -----------------------------------------------------------------
    Charge (ESU x 10^10)
                 0.0000
    Dipole Moment (Debye)
         X       0.0000      Y      -0.0000      Z       2.5284
       Tot       2.5284
    Quadrupole Moments (Debye-Ang)
        XX      -9.6615     XY       3.3226     YY     -10.9069
        XZ      -0.0000     YZ      -0.0000     ZZ     -11.2869
    Octopole Moments (Debye-Ang^2)
       XXX       0.0000    XXY      -0.0000    XYY      -0.0000
       YYY      -0.0000    XXZ       3.2696    XYZ       1.4962
       YYZ       0.7718    XZZ      -0.0000    YZZ      -0.0000
       ZZZ       1.2016
    Hexadecapole Moments (Debye-Ang^3)
      XXXX     -41.8616   XXXY       4.0596   XXYY      -8.8049
      XYYY       1.6369   YYYY     -10.3779   XXXZ      -0.0000
      XXYZ      -0.0000   XYYZ      -0.0000   YYYZ      -0.0000
      XXZZ      -9.1485   XYZZ       0.8957   YYZZ      -3.1005
      XZZZ      -0.0000   YZZZ      -0.0000   ZZZZ      -9.9893
 -----------------------------------------------------------------
 Calculating analytic gradient of the SCF energy
 Gradient of SCF Energy
            1           2           3           4
    1   0.0244629  -0.0244629   0.0120997  -0.0120997
    2  -0.0196587   0.0196587  -0.0043332   0.0043332
    3   0.0007092   0.0007092  -0.0007092  -0.0007092
 Max gradient component =       2.446E-02
 RMS gradient           =       1.385E-02
 Gradient time:  CPU 0.08 s  wall 0.08 s

     Step 1	:
        Energy is -151.4851371079
                            Maximum         Tolerance       Converged?
         Gradient           2.83225428e-02	3.00000000e-04	false
         Displacement       2.04909848e-01	1.20000000e-03	false
         Energy change      1.95038636e-02	1.00000000e-06	false


	OPTIMIZATION CYCLE:	2

 Scaling Magnitude of Eigenvalues
 	Minimum: -25.00000000	 Maximum: 25.00000000
 6 Hessian Eigenvalues to form next step
   0.09979261   0.20000000   0.20668674   0.49811168   0.50000000
   0.51412017

 Minimum Search taking a RFO step
 Searching for Lambda that minimizes along all modes
	Value of Lambda   -0.00631602
	Norm  of Stepsize  0.17335308
	RMS   of Stepsize  0.07077110

	Performing Iterative Coordinate Back-Transformation

	  Starting from Previous Position

	  iter:	0	rms: 5.1857202039e-02	maxdev: 1.0305681460e-01
	  iter:	1	rms: 2.6247352462e-03	maxdev: 3.7545885535e-03
	  iter:	2	rms: 4.6865824482e-06	maxdev: 7.1188539613e-06
	  iter:	3	rms: 3.0414118685e-11	maxdev: 4.8550241655e-11	 Success!

	Finished Iterative Coordinate Back-Transformation
 ----------------------------------------------------------------
             Standard Nuclear Orientation (Angstroms)
    I     Atom           X                Y                Z
 ----------------------------------------------------------------
    1      O      -0.7392972636     0.1247841319    -0.0601463906
    2      O       0.7392972636    -0.1247841319    -0.0601463906
    3      H       1.0623466818     0.5922751653     0.5348938535
    4      H      -1.0623466818    -0.5922751653     0.5348938535
 ----------------------------------------------------------------
 Molecular Point Group                 C2    NOp =  2
 Largest Abelian Subgroup              C2    NOp =  2
 Nuclear Repulsion Energy =          35.72123602 hartrees
 There are        9 alpha and        9 beta electrons

                       Distance Matrix (Angstroms)
             O (  1)   O (  2)   H (  3)
   O (  2)  1.499509
   H (  3)  1.954109  0.986209
   H (  4)  0.986209  1.954109  2.432587
 
 Applying Cartesian multipole field
    Component          Value
    ---------          -----
     (2,0,0)        1.00000E-10
     (0,2,0)        2.00000E-10
     (0,0,2)       -3.00000E-10
 Nucleus-field energy     = 3.9329026979e-09 hartrees
 Requested basis set is 6-31G
 There are 10 shells and 22 basis functions
 A cutoff of  1.0D-12 yielded     55 shell pairs
 There are       277 function pairs
 Smallest overlap matrix eigenvalue = 4.41E-02
 Guess MOs from SCF MO coefficient file

 -----------------------------------------------------------------------
  General SCF calculation program by
  Eric Jon Sundstrom, Paul Horn, Yuezhi Mao, Dmitri Zuev, Alec White,
  David Stuck, Shaama M.S., Shane Yost, Joonho Lee, David Small,
  Daniel Levine, Susi Lehtola, Hugh Burton, Evgeny Epifanovsky,
  Bang C. Huynh
 -----------------------------------------------------------------------
 Exchange:     0.2000 Hartree-Fock + 0.0800 Slater + 0.7200 B88
 Correlation:  0.1900 VWN1RPA + 0.8100 LYP
 Using SG-1 standard quadrature grid
 A restricted SCF calculation will be
 performed using DIIS
 SCF converges when DIIS error is below 1.0e-08
 ---------------------------------------
  Cycle       Energy         DIIS error
 ---------------------------------------
    1    -151.4865371040      4.27e-03  
    2    -151.4888372810      4.58e-04  
    3    -151.4888735187      2.12e-04  
    4    -151.4888755458      1.14e-04  
    5    -151.4888762609      1.13e-05  
    6    -151.4888762766      6.95e-07  
    7    -151.4888762767      7.00e-08  
    8    -151.4888762767      9.26e-09  Convergence criterion met
 ---------------------------------------
 SCF time:   CPU 0.31s  wall 0.00s 
 SCF   energy =  -151.48887628
 Total energy =  -151.48887628
 
 --------------------------------------------------------------
             Orbital Energies (a.u.) and Symmetries
 --------------------------------------------------------------
 
 Alpha MOs, Restricted
 -- Occupied --                  
-19.207 -19.207  -1.112  -0.915  -0.532  -0.471  -0.406  -0.311
  1 A     1 B     2 A     2 B     3 A     3 B     4 A     5 A                  
 -0.290
  4 B                                                                          
 -- Virtual --                   
 -0.018   0.054   0.100   0.779   0.782   0.845   0.857   0.981
  5 B     6 A     6 B     7 A     7 B     8 B     8 A     9 B                  
  1.030   1.045   1.049   1.371   1.610
  9 A    10 A    10 B    11 A    11 B                                          
 
 Beta MOs, Restricted
 -- Occupied --                  
-19.207 -19.207  -1.112  -0.915  -0.532  -0.471  -0.406  -0.311
  1 A     1 B     2 A     2 B     3 A     3 B     4 A     5 A                  
 -0.290
  4 B                                                                          
 -- Virtual --                   
 -0.018   0.054   0.100   0.779   0.782   0.845   0.857   0.981
  5 B     6 A     6 B     7 A     7 B     8 B     8 A     9 B                  
  1.030   1.045   1.049   1.371   1.610
  9 A    10 A    10 B    11 A    11 B                                          
 --------------------------------------------------------------
 
          Ground-State Mulliken Net Atomic Charges

     Atom                 Charge (a.u.)
  ----------------------------------------
      1 O                    -0.387523
      2 O                    -0.387523
      3 H                     0.387523
      4 H                     0.387523
  ----------------------------------------
  Sum of atomic charges =     0.000000

 -----------------------------------------------------------------
                    Cartesian Multipole Moments
 -----------------------------------------------------------------
    Charge (ESU x 10^10)
                -0.0000
    Dipole Moment (Debye)
         X       0.0000      Y      -0.0000      Z       2.5078
       Tot       2.5078
    Quadrupole Moments (Debye-Ang)
        XX     -10.0787     XY       3.2127     YY     -10.9662
        XZ      -0.0000     YZ      -0.0000     ZZ     -11.2738
    Octopole Moments (Debye-Ang^2)
       XXX       0.0000    XXY      -0.0000    XYY      -0.0000
       YYY      -0.0000    XXZ       3.1361    XYZ       1.4294
       YYZ       0.7641    XZZ      -0.0000    YZZ      -0.0000
       ZZZ       1.3362
    Hexadecapole Moments (Debye-Ang^3)
      XXXX     -43.5889   XXXY       4.3964   XXYY      -9.1539
      XYYY       2.5903   YYYY     -10.8040   XXXZ      -0.0000
      XXYZ      -0.0000   XYYZ      -0.0000   YYYZ      -0.0000
      XXZZ      -9.3716   XYZZ       1.2133   YYZZ      -3.1622
      XZZZ      -0.0000   YZZZ      -0.0000   ZZZZ      -9.9949
 -----------------------------------------------------------------
 Calculating analytic gradient of the SCF energy
 Gradient of SCF Energy
            1           2           3           4
    1   0.0074966  -0.0074966   0.0010930  -0.0010930
    2  -0.0052700   0.0052700  -0.0021961   0.0021961
    3  -0.0017966  -0.0017966   0.0017966   0.0017966
 Max gradient component =       7.497E-03
 RMS gradient           =       4.009E-03
 Gradient time:  CPU 0.08 s  wall 0.08 s

     Step 2	:
        Energy is -151.4888762767
                            Maximum         Tolerance       Converged?
         Gradient           8.50960659e-03	3.00000000e-04	false
         Displacement       1.37581343e-01	1.20000000e-03	false
         Energy change      3.73916880e-03	1.00000000e-06	false


	OPTIMIZATION CYCLE:	3

 Scaling Magnitude of Eigenvalues
 	Minimum: -25.00000000	 Maximum: 25.00000000
 6 Hessian Eigenvalues to form next step
   0.09036400   0.18691242   0.20000000   0.49808287   0.50000000
   0.52298095

 Minimum Search taking a RFO step
 Searching for Lambda that minimizes along all modes
	Value of Lambda   -0.00065478
	Norm  of Stepsize  0.07870283
	RMS   of Stepsize  0.03213029

	Performing Iterative Coordinate Back-Transformation

	  Starting from Previous Position

	  iter:	0	rms: 1.7235971168e-02	maxdev: 2.6761588065e-02
	  iter:	1	rms: 3.6330005069e-04	maxdev: 5.8976640826e-04
	  iter:	2	rms: 1.7277132821e-07	maxdev: 3.1969358571e-07	 Success!

	Finished Iterative Coordinate Back-Transformation
 ----------------------------------------------------------------
             Standard Nuclear Orientation (Angstroms)
    I     Atom           X                Y                Z
 ----------------------------------------------------------------
    1      O      -0.7449289052     0.1388568746    -0.0498007314
    2      O       0.7449289054    -0.1388568746    -0.0498007315
    3      H       1.0581037586     0.5990415278     0.5245481944
    4      H      -1.0581037588    -0.5990415277     0.5245481944
 ----------------------------------------------------------------
 Molecular Point Group                 C2    NOp =  2
 Largest Abelian Subgroup              C2    NOp =  2
 Nuclear Repulsion Energy =          35.49819595 hartrees
 There are        9 alpha and        9 beta electrons

                       Distance Matrix (Angstroms)
             O (  1)   O (  2)   H (  3)
   O (  2)  1.515520
   H (  3)  1.947453  0.986128
   H (  4)  0.986128  1.947453  2.431818
 
 Applying Cartesian multipole field
    Component          Value
    ---------          -----
     (2,0,0)        1.00000E-10
     (0,2,0)        2.00000E-10
     (0,0,2)       -3.00000E-10
 Nucleus-field energy     = 4.0711297719e-09 hartrees
 Requested basis set is 6-31G
 There are 10 shells and 22 basis functions
 A cutoff of  1.0D-12 yielded     55 shell pairs
 There are       277 function pairs
 Smallest overlap matrix eigenvalue = 4.50E-02
 Guess MOs from SCF MO coefficient file

 -----------------------------------------------------------------------
  General SCF calculation program by
  Eric Jon Sundstrom, Paul Horn, Yuezhi Mao, Dmitri Zuev, Alec White,
  David Stuck, Shaama M.S., Shane Yost, Joonho Lee, David Small,
  Daniel Levine, Susi Lehtola, Hugh Burton, Evgeny Epifanovsky,
  Bang C. Huynh
 -----------------------------------------------------------------------
 Exchange:     0.2000 Hartree-Fock + 0.0800 Slater + 0.7200 B88
 Correlation:  0.1900 VWN1RPA + 0.8100 LYP
 Using SG-1 standard quadrature grid
 A restricted SCF calculation will be
 performed using DIIS
 SCF converges when DIIS error is below 1.0e-08
 ---------------------------------------
  Cycle       Energy         DIIS error
 ---------------------------------------
    1    -151.4889195306      1.82e-03  
    2    -151.4893507142      1.99e-04  
    3    -151.4893558064      3.13e-05  
    4    -151.4893559178      1.24e-05  
    5    -151.4893559247      7.85e-06  
    6    -151.4893559278      3.59e-07  
    7    -151.4893559279      3.45e-08  
    8    -151.4893559279      5.64e-09  Convergence criterion met
 ---------------------------------------
 SCF time:   CPU 0.31s  wall 1.00s 
 SCF   energy =  -151.48935593
 Total energy =  -151.48935593
 
 --------------------------------------------------------------
             Orbital Energies (a.u.) and Symmetries
 --------------------------------------------------------------
 
 Alpha MOs, Restricted
 -- Occupied --                  
-19.208 -19.208  -1.108  -0.917  -0.525  -0.474  -0.405  -0.316
  1 A     1 B     2 A     2 B     3 A     3 B     4 A     5 A                  
 -0.289
  4 B                                                                          
 -- Virtual --                   
 -0.025   0.054   0.099   0.782   0.783   0.846   0.854   0.979
  5 B     6 A     6 B     7 A     7 B     8 B     8 A     9 B                  
  1.033   1.038   1.046   1.373   1.614
  9 A    10 A    10 B    11 A    11 B                                          
 
 Beta MOs, Restricted
 -- Occupied --                  
-19.208 -19.208  -1.108  -0.917  -0.525  -0.474  -0.405  -0.316
  1 A     1 B     2 A     2 B     3 A     3 B     4 A     5 A                  
 -0.289
  4 B                                                                          
 -- Virtual --                   
 -0.025   0.054   0.099   0.782   0.783   0.846   0.854   0.979
  5 B     6 A     6 B     7 A     7 B     8 B     8 A     9 B                  
  1.033   1.038   1.046   1.373   1.614
  9 A    10 A    10 B    11 A    11 B                                          
 --------------------------------------------------------------
 
          Ground-State Mulliken Net Atomic Charges

     Atom                 Charge (a.u.)
  ----------------------------------------
      1 O                    -0.389012
      2 O                    -0.389012
      3 H                     0.389012
      4 H                     0.389012
  ----------------------------------------
  Sum of atomic charges =     0.000000

 -----------------------------------------------------------------
                    Cartesian Multipole Moments
 -----------------------------------------------------------------
    Charge (ESU x 10^10)
                 0.0000
    Dipole Moment (Debye)
         X       0.0000      Y      -0.0000      Z       2.4167
       Tot       2.4167
    Quadrupole Moments (Debye-Ang)
        XX     -10.0765     XY       3.2752     YY     -10.9334
        XZ      -0.0000     YZ      -0.0000     ZZ     -11.3327
    Octopole Moments (Debye-Ang^2)
       XXX       0.0000    XXY      -0.0000    XYY      -0.0000
       YYY      -0.0000    XXZ       2.9519    XYZ       1.4224
       YYZ       0.6486    XZZ      -0.0000    YZZ      -0.0000
       ZZZ       0.9871
    Hexadecapole Moments (Debye-Ang^3)
      XXXX     -44.0811   XXXY       4.7206   XXYY      -9.2290
      XYYY       2.9867   YYYY     -11.0312   XXXZ      -0.0000
      XXYZ      -0.0000   XYYZ      -0.0000   YYYZ      -0.0000
      XXZZ      -9.4774   XYZZ       1.3353   YYZZ      -3.1953
      XZZZ      -0.0000   YZZZ      -0.0000   ZZZZ      -9.9053
 -----------------------------------------------------------------
 Calculating analytic gradient of the SCF energy
 Gradient of SCF Energy
            1           2           3           4
    1   0.0012347  -0.0012347  -0.0007548   0.0007548
    2  -0.0017060   0.0017060  -0.0014653   0.0014653
    3  -0.0020651  -0.0020651   0.0020651   0.0020651
 Max gradient component =       2.065E-03
 RMS gradient           =       1.617E-03
 Gradient time:  CPU 0.11 s  wall 0.11 s

     Step 3	:
        Energy is -151.4893559279
                            Maximum         Tolerance       Converged?
         Gradient           3.52197870e-03	3.00000000e-04	false
         Displacement       5.50408391e-02	1.20000000e-03	false
         Energy change      4.79651191e-04	1.00000000e-06	false


	OPTIMIZATION CYCLE:	4

 Scaling Magnitude of Eigenvalues
 	Minimum: -25.00000000	 Maximum: 25.00000000
 6 Hessian Eigenvalues to form next step
   0.03422693   0.20000000   0.27164741   0.49673775   0.50000000
   0.50923262

 Minimum Search taking a RFO step
 Searching for Lambda that minimizes along all modes
	Value of Lambda   -0.00061683
	Norm  of Stepsize  0.13110254
	RMS   of Stepsize  0.05352239

	Performing Iterative Coordinate Back-Transformation

	  Starting from Previous Position

	  iter:	0	rms: 3.2484154381e-02	maxdev: 4.3905168991e-02
	  iter:	1	rms: 1.0070428784e-03	maxdev: 1.2986600384e-03
	  iter:	2	rms: 8.7882064782e-07	maxdev: 1.7658508572e-06	 Success!

	Finished Iterative Coordinate Back-Transformation
 ----------------------------------------------------------------
             Standard Nuclear Orientation (Angstroms)
    I     Atom           X                Y                Z
 ----------------------------------------------------------------
    1      O      -0.7495960545     0.1562434231    -0.0258801916
    2      O       0.7495960913    -0.1562434304    -0.0258802205
    3      H       1.0660851850     0.6151882407     0.5006276691
    4      H      -1.0660852219    -0.6151882334     0.5006276688
 ----------------------------------------------------------------
 Molecular Point Group                 C2    NOp =  2
 Largest Abelian Subgroup              C2    NOp =  2
 Nuclear Repulsion Energy =          35.26810625 hartrees
 There are        9 alpha and        9 beta electrons

                       Distance Matrix (Angstroms)
             O (  1)   O (  2)   H (  3)
   O (  2)  1.531413
   H (  3)  1.945389  0.986145
   H (  4)  0.986145  1.945389  2.461702
 
 Applying Cartesian multipole field
    Component          Value
    ---------          -----
     (2,0,0)        1.00000E-10
     (0,2,0)        2.00000E-10
     (0,0,2)       -3.00000E-10
 Nucleus-field energy     = 4.2933041748e-09 hartrees
 Requested basis set is 6-31G
 There are 10 shells and 22 basis functions
 A cutoff of  1.0D-12 yielded     55 shell pairs
 There are       277 function pairs
 Smallest overlap matrix eigenvalue = 4.60E-02
 Guess MOs from SCF MO coefficient file

 -----------------------------------------------------------------------
  General SCF calculation program by
  Eric Jon Sundstrom, Paul Horn, Yuezhi Mao, Dmitri Zuev, Alec White,
  David Stuck, Shaama M.S., Shane Yost, Joonho Lee, David Small,
  Daniel Levine, Susi Lehtola, Hugh Burton, Evgeny Epifanovsky,
  Bang C. Huynh
 -----------------------------------------------------------------------
 Exchange:     0.2000 Hartree-Fock + 0.0800 Slater + 0.7200 B88
 Correlation:  0.1900 VWN1RPA + 0.8100 LYP
 Using SG-1 standard quadrature grid
 A restricted SCF calculation will be
 performed using DIIS
 SCF converges when DIIS error is below 1.0e-08
 ---------------------------------------
  Cycle       Energy         DIIS error
 ---------------------------------------
    1    -151.4887145144      2.86e-03  
    2    -151.4898038264      3.03e-04  
    3    -151.4898145871      4.85e-05  
    4    -151.4898147439      4.14e-05  
    5    -151.4898148264      6.54e-06  
    6    -151.4898148290      3.36e-07  
    7    -151.4898148290      3.48e-07  
    8    -151.4898148290      5.82e-08  
    9    -151.4898148290      2.46e-09  Convergence criterion met
 ---------------------------------------
 SCF time:   CPU 0.36s  wall 0.00s 
 SCF   energy =  -151.48981483
 Total energy =  -151.48981483
 
 --------------------------------------------------------------
             Orbital Energies (a.u.) and Symmetries
 --------------------------------------------------------------
 
 Alpha MOs, Restricted
 -- Occupied --                  
-19.209 -19.209  -1.102  -0.918  -0.517  -0.478  -0.403  -0.323
  1 A     1 B     2 A     2 B     3 A     3 B     4 A     5 A                  
 -0.285
  4 B                                                                          
 -- Virtual --                   
 -0.031   0.055   0.098   0.783   0.784   0.849   0.850   0.977
  5 B     6 A     6 B     7 B     7 A     8 B     8 A     9 B                  
  1.032   1.037   1.043   1.371   1.618
  9 A    10 A    10 B    11 A    11 B                                          
 
 Beta MOs, Restricted
 -- Occupied --                  
-19.209 -19.209  -1.102  -0.918  -0.517  -0.478  -0.403  -0.323
  1 A     1 B     2 A     2 B     3 A     3 B     4 A     5 A                  
 -0.285
  4 B                                                                          
 -- Virtual --                   
 -0.031   0.055   0.098   0.783   0.784   0.849   0.850   0.977
  5 B     6 A     6 B     7 B     7 A     8 B     8 A     9 B                  
  1.032   1.037   1.043   1.371   1.618
  9 A    10 A    10 B    11 A    11 B                                          
 --------------------------------------------------------------
 
          Ground-State Mulliken Net Atomic Charges

     Atom                 Charge (a.u.)
  ----------------------------------------
      1 O                    -0.391282
      2 O                    -0.391282
      3 H                     0.391282
      4 H                     0.391282
  ----------------------------------------
  Sum of atomic charges =     0.000000

 -----------------------------------------------------------------
                    Cartesian Multipole Moments
 -----------------------------------------------------------------
    Charge (ESU x 10^10)
                 0.0000
    Dipole Moment (Debye)
         X      -0.0000      Y      -0.0000      Z       2.2209
       Tot       2.2209
    Quadrupole Moments (Debye-Ang)
        XX      -9.9528     XY       3.4371     YY     -10.8435
        XZ      -0.0000     YZ       0.0000     ZZ     -11.4619
    Octopole Moments (Debye-Ang^2)
       XXX      -0.0000    XXY      -0.0000    XYY      -0.0000
       YYY       0.0000    XXZ       2.5760    XYZ       1.4205
       YYZ       0.3981    XZZ      -0.0000    YZZ       0.0000
       ZZZ       0.1713
    Hexadecapole Moments (Debye-Ang^3)
      XXXX     -44.3389   XXXY       5.2503   XXYY      -9.2329
      XYYY       3.4843   YYYY     -11.3403   XXXZ       0.0000
      XXYZ      -0.0000   XYYZ       0.0000   YYYZ      -0.0000
      XXZZ      -9.5955   XYZZ       1.4762   YYZZ      -3.2558
      XZZZ       0.0000   YZZZ      -0.0000   ZZZZ      -9.7528
 -----------------------------------------------------------------
 Calculating analytic gradient of the SCF energy
 Gradient of SCF Energy
            1           2           3           4
    1  -0.0043484   0.0043484  -0.0014012   0.0014012
    2   0.0011340  -0.0011340  -0.0006251   0.0006251
    3  -0.0020118  -0.0020118   0.0020118   0.0020118
 Max gradient component =       4.348E-03
 RMS gradient           =       2.260E-03
 Gradient time:  CPU 0.08 s  wall 0.08 s

     Step 4	:
        Energy is -151.4898148290
                            Maximum         Tolerance       Converged?
         Gradient           4.38402882e-03	3.00000000e-04	false
         Displacement       1.01518665e-01	1.20000000e-03	false
         Energy change      4.58901113e-04	1.00000000e-06	false


	OPTIMIZATION CYCLE:	5

 Scaling Magnitude of Eigenvalues
 	Minimum: -25.00000000	 Maximum: 25.00000000
 6 Hessian Eigenvalues to form next step
   0.01436486   0.20000000   0.30972477   0.49836095   0.50000000
   0.54889700

 Minimum Search taking a RFO step
 Searching for Lambda that minimizes along all modes
	Value of Lambda   -0.00063797
	Norm  of Stepsize  0.19224274
	RMS   of Stepsize  0.07848277

	Performing Iterative Coordinate Back-Transformation

	  Starting from Previous Position

	  iter:	0	rms: 5.0889206413e-02	maxdev: 7.2827034829e-02
	  iter:	1	rms: 2.3925969414e-03	maxdev: 3.2869362002e-03
	  iter:	2	rms: 2.4067496344e-06	maxdev: 4.3279540026e-06
	  iter:	3	rms: 1.2255524450e-12	maxdev: 1.6922884854e-12	 Success!

	Finished Iterative Coordinate Back-Transformation
 ----------------------------------------------------------------
             Standard Nuclear Orientation (Angstroms)
    I     Atom           X                Y                Z
 ----------------------------------------------------------------
    1      O      -0.7509221101     0.1749252730     0.0138794788
    2      O       0.7509221036    -0.1749252696     0.0138794770
    3      H       1.0837258845     0.6383092680     0.4608679849
    4      H      -1.0837258780    -0.6383092713     0.4608679850
 ----------------------------------------------------------------
 Molecular Point Group                 C2    NOp =  2
 Largest Abelian Subgroup              C2    NOp =  2
 Nuclear Repulsion Energy =          35.11578779 hartrees
 There are        9 alpha and        9 beta electrons

                       Distance Matrix (Angstroms)
             O (  1)   O (  2)   H (  3)
   O (  2)  1.542054
   H (  3)  1.944340  0.985854
   H (  4)  0.985854  1.944340  2.515473
 
 Applying Cartesian multipole field
    Component          Value
    ---------          -----
     (2,0,0)        1.00000E-10
     (0,2,0)        2.00000E-10
     (0,0,2)       -3.00000E-10
 Nucleus-field energy     = 4.5339465135e-09 hartrees
 Requested basis set is 6-31G
 There are 10 shells and 22 basis functions
 A cutoff of  1.0D-12 yielded     55 shell pairs
 There are       277 function pairs
 Smallest overlap matrix eigenvalue = 4.67E-02
 Guess MOs from SCF MO coefficient file

 -----------------------------------------------------------------------
  General SCF calculation program by
  Eric Jon Sundstrom, Paul Horn, Yuezhi Mao, Dmitri Zuev, Alec White,
  David Stuck, Shaama M.S., Shane Yost, Joonho Lee, David Small,
  Daniel Levine, Susi Lehtola, Hugh Burton, Evgeny Epifanovsky,
  Bang C. Huynh
 -----------------------------------------------------------------------
 Exchange:     0.2000 Hartree-Fock + 0.0800 Slater + 0.7200 B88
 Correlation:  0.1900 VWN1RPA + 0.8100 LYP
 Using SG-1 standard quadrature grid
 A restricted SCF calculation will be
 performed using DIIS
 SCF converges when DIIS error is below 1.0e-08
 ---------------------------------------
  Cycle       Energy         DIIS error
 ---------------------------------------
    1    -151.4879721650      4.15e-03  
    2    -151.4902595685      4.17e-04  
    3    -151.4902812263      7.22e-05  
    4    -151.4902814703      6.92e-05  
    5    -151.4902816994      5.31e-06  
    6    -151.4902817018      4.28e-07  
    7    -151.4902817019      4.30e-08  
    8    -151.4902817019      2.32e-08  
    9    -151.4902817019      1.73e-08  
   10    -151.4902817019      1.58e-10  Convergence criterion met
 ---------------------------------------
 SCF time:   CPU 0.37s  wall 1.00s 
 SCF   energy =  -151.49028170
 Total energy =  -151.49028170
 
 --------------------------------------------------------------
             Orbital Energies (a.u.) and Symmetries
 --------------------------------------------------------------
 
 Alpha MOs, Restricted
 -- Occupied --                  
-19.208 -19.208  -1.098  -0.919  -0.509  -0.482  -0.399  -0.332
  1 A     1 B     2 A     2 B     3 A     3 B     4 A     5 A                  
 -0.279
  4 B                                                                          
 -- Virtual --                   
 -0.035   0.056   0.099   0.783   0.789   0.845   0.853   0.973
  5 B     6 A     6 B     7 B     7 A     8 A     8 B     9 B                  
  1.027   1.042   1.043   1.368   1.623
  9 A    10 B    10 A    11 A    11 B                                          
 
 Beta MOs, Restricted
 -- Occupied --                  
-19.208 -19.208  -1.098  -0.919  -0.509  -0.482  -0.399  -0.332
  1 A     1 B     2 A     2 B     3 A     3 B     4 A     5 A                  
 -0.279
  4 B                                                                          
 -- Virtual --                   
 -0.035   0.056   0.099   0.783   0.789   0.845   0.853   0.973
  5 B     6 A     6 B     7 B     7 A     8 A     8 B     9 B                  
  1.027   1.042   1.043   1.368   1.623
  9 A    10 B    10 A    11 A    11 B                                          
 --------------------------------------------------------------
 
          Ground-State Mulliken Net Atomic Charges

     Atom                 Charge (a.u.)
  ----------------------------------------
      1 O                    -0.393972
      2 O                    -0.393972
      3 H                     0.393972
      4 H                     0.393972
  ----------------------------------------
  Sum of atomic charges =     0.000000

 -----------------------------------------------------------------
                    Cartesian Multipole Moments
 -----------------------------------------------------------------
    Charge (ESU x 10^10)
                 0.0000
    Dipole Moment (Debye)
         X       0.0000      Y      -0.0000      Z       1.8977
       Tot       1.8977
    Quadrupole Moments (Debye-Ang)
        XX      -9.7272     XY       3.6813     YY     -10.7037
        XZ       0.0000     YZ      -0.0000     ZZ     -11.6661
    Octopole Moments (Debye-Ang^2)
       XXX       0.0000    XXY      -0.0000    XYY       0.0000
       YYY      -0.0000    XXZ       1.9405    XYZ       1.4050
       YYZ      -0.0148    XZZ       0.0000    YZZ      -0.0000
       ZZZ      -1.1986
    Hexadecapole Moments (Debye-Ang^3)
      XXXX     -44.1500   XXXY       5.9222   XXYY      -9.1288
      XYYY       4.0271   YYYY     -11.6917   XXXZ       0.0000
      XXYZ       0.0000   XYYZ       0.0000   YYYZ      -0.0000
      XXZZ      -9.7251   XYZZ       1.6045   YYZZ      -3.3725
      XZZZ       0.0000   YZZZ      -0.0000   ZZZZ      -9.6593
 -----------------------------------------------------------------
 Calculating analytic gradient of the SCF energy
 Gradient of SCF Energy
            1           2           3           4
    1  -0.0073143   0.0073143  -0.0011890   0.0011890
    2   0.0028511  -0.0028511   0.0001220  -0.0001220
    3  -0.0015095  -0.0015095   0.0015095   0.0015095
 Max gradient component =       7.314E-03
 RMS gradient           =       3.357E-03
 Gradient time:  CPU 0.07 s  wall 0.07 s

     Step 5	:
        Energy is -151.4902817019
                            Maximum         Tolerance       Converged?
         Gradient           6.58923792e-03	3.00000000e-04	false
         Displacement       1.62179687e-01	1.20000000e-03	false
         Energy change      4.66872889e-04	1.00000000e-06	false


	OPTIMIZATION CYCLE:	6

 Scaling Magnitude of Eigenvalues
 	Minimum: -25.00000000	 Maximum: 25.00000000
 6 Hessian Eigenvalues to form next step
   0.00848601   0.20000000   0.27413956   0.49846416   0.50000000
   0.56958293

 Minimum Search taking a RFO step
 Searching for Lambda that minimizes along all modes
	Value of Lambda   -0.00053026
	Norm  of Stepsize  0.20394434
	RMS   of Stepsize  0.08325993

	Performing Iterative Coordinate Back-Transformation

	  Starting from Previous Position

	  iter:	0	rms: 5.5255343834e-02	maxdev: 8.3794012161e-02
	  iter:	1	rms: 2.9142790579e-03	maxdev: 4.4073202639e-03
	  iter:	2	rms: 1.7016738605e-06	maxdev: 3.3362214826e-06
	  iter:	3	rms: 1.4753382956e-12	maxdev: 2.5234837293e-12	 Success!

	Finished Iterative Coordinate Back-Transformation
 ----------------------------------------------------------------
             Standard Nuclear Orientation (Angstroms)
    I     Atom           X                Y                Z
 ----------------------------------------------------------------
    1      O      -0.7475726013     0.1879830559     0.0592823459
    2      O       0.7475725945    -0.1879830526     0.0592823452
    3      H       1.1026580938     0.6590487342     0.4154651172
    4      H      -1.1026580870    -0.6590487374     0.4154651174
 ----------------------------------------------------------------
 Molecular Point Group                 C2    NOp =  2
 Largest Abelian Subgroup              C2    NOp =  2
 Nuclear Repulsion Energy =          35.12798142 hartrees
 There are        9 alpha and        9 beta electrons

                       Distance Matrix (Angstroms)
             O (  1)   O (  2)   H (  3)
   O (  2)  1.541691
   H (  3)  1.942195  0.985096
   H (  4)  0.985096  1.942195  2.569202
 
 Applying Cartesian multipole field
    Component          Value
    ---------          -----
     (2,0,0)        1.00000E-10
     (0,2,0)        2.00000E-10
     (0,0,2)       -3.00000E-10
 Nucleus-field energy     = 4.6557303463e-09 hartrees
 Requested basis set is 6-31G
 There are 10 shells and 22 basis functions
 A cutoff of  1.0D-12 yielded     55 shell pairs
 There are       277 function pairs
 Smallest overlap matrix eigenvalue = 4.65E-02
 Guess MOs from SCF MO coefficient file

 -----------------------------------------------------------------------
  General SCF calculation program by
  Eric Jon Sundstrom, Paul Horn, Yuezhi Mao, Dmitri Zuev, Alec White,
  David Stuck, Shaama M.S., Shane Yost, Joonho Lee, David Small,
  Daniel Levine, Susi Lehtola, Hugh Burton, Evgeny Epifanovsky,
  Bang C. Huynh
 -----------------------------------------------------------------------
 Exchange:     0.2000 Hartree-Fock + 0.0800 Slater + 0.7200 B88
 Correlation:  0.1900 VWN1RPA + 0.8100 LYP
 Using SG-1 standard quadrature grid
 A restricted SCF calculation will be
 performed using DIIS
 SCF converges when DIIS error is below 1.0e-08
 ---------------------------------------
  Cycle       Energy         DIIS error
 ---------------------------------------
    1    -151.4880971384      4.41e-03  
    2    -151.4906587129      4.26e-04  
    3    -151.4906833731      9.97e-05  
    4    -151.4906837218      9.05e-05  
    5    -151.4906841158      3.93e-06  
    6    -151.4906841191      5.66e-07  
    7    -151.4906841191      8.92e-08  
    8    -151.4906841191      6.64e-09  Convergence criterion met
 ---------------------------------------
 SCF time:   CPU 0.30s  wall 0.00s 
 SCF   energy =  -151.49068412
 Total energy =  -151.49068412
 
 --------------------------------------------------------------
             Orbital Energies (a.u.) and Symmetries
 --------------------------------------------------------------
 
 Alpha MOs, Restricted
 -- Occupied --                  
-19.207 -19.207  -1.097  -0.919  -0.505  -0.486  -0.396  -0.341
  1 A     1 B     2 A     2 B     3 A     3 B     4 A     5 A                  
 -0.273
  4 B                                                                          
 -- Virtual --                   
 -0.035   0.057   0.100   0.782   0.794   0.841   0.856   0.969
  5 B     6 A     6 B     7 B     7 A     8 A     8 B     9 B                  
  1.024   1.043   1.049   1.365   1.626
  9 A    10 B    10 A    11 A    11 B                                          
 
 Beta MOs, Restricted
 -- Occupied --                  
-19.207 -19.207  -1.097  -0.919  -0.505  -0.486  -0.396  -0.341
  1 A     1 B     2 A     2 B     3 A     3 B     4 A     5 A                  
 -0.273
  4 B                                                                          
 -- Virtual --                   
 -0.035   0.057   0.100   0.782   0.794   0.841   0.856   0.969
  5 B     6 A     6 B     7 B     7 A     8 A     8 B     9 B                  
  1.024   1.043   1.049   1.365   1.626
  9 A    10 B    10 A    11 A    11 B                                          
 --------------------------------------------------------------
 
          Ground-State Mulliken Net Atomic Charges

     Atom                 Charge (a.u.)
  ----------------------------------------
      1 O                    -0.396085
      2 O                    -0.396085
      3 H                     0.396085
      4 H                     0.396085
  ----------------------------------------
  Sum of atomic charges =     0.000000

 -----------------------------------------------------------------
                    Cartesian Multipole Moments
 -----------------------------------------------------------------
    Charge (ESU x 10^10)
                -0.0000
    Dipole Moment (Debye)
         X       0.0000      Y      -0.0000      Z       1.5243
       Tot       1.5243
    Quadrupole Moments (Debye-Ang)
        XX      -9.4924     XY       3.9152     YY     -10.5688
        XZ       0.0000     YZ      -0.0000     ZZ     -11.8855
    Octopole Moments (Debye-Ang^2)
       XXX       0.0000    XXY      -0.0000    XYY       0.0000
       YYY      -0.0000    XXZ       1.1776    XYZ       1.3651
       YYZ      -0.4907    XZZ       0.0000    YZZ      -0.0000
       ZZZ      -2.7764
    Hexadecapole Moments (Debye-Ang^3)
      XXXX     -43.4992   XXXY       6.4768   XXYY      -8.9381
      XYYY       4.4138   YYYY     -11.9362   XXXZ       0.0000
      XXYZ      -0.0000   XYYZ      -0.0000   YYYZ      -0.0000
      XXZZ      -9.8513   XYZZ       1.6591   YYZZ      -3.5297
      XZZZ       0.0000   YZZZ      -0.0000   ZZZZ      -9.8067
 -----------------------------------------------------------------
 Calculating analytic gradient of the SCF energy
 Gradient of SCF Energy
            1           2           3           4
    1  -0.0061900   0.0061900  -0.0005300   0.0005300
    2   0.0023257  -0.0023257   0.0002196  -0.0002196
    3  -0.0008820  -0.0008820   0.0008820   0.0008820
 Max gradient component =       6.190E-03
 RMS gradient           =       2.757E-03
 Gradient time:  CPU 0.08 s  wall 0.07 s

     Step 6	:
        Energy is -151.4906841191
                            Maximum         Tolerance       Converged?
         Gradient           5.54440453e-03	3.00000000e-04	false
         Displacement       1.79817676e-01	1.20000000e-03	false
         Energy change      4.02417271e-04	1.00000000e-06	false


	OPTIMIZATION CYCLE:	7

 Scaling Magnitude of Eigenvalues
 	Minimum: -25.00000000	 Maximum: 25.00000000
 6 Hessian Eigenvalues to form next step
   0.00521300   0.20000000   0.21926066   0.49823358   0.50000000
   0.52760996

 Minimum Search taking a RFO step
 Searching for Lambda that minimizes along all modes
	Value of Lambda   -0.00042876
	Norm  of Stepsize  0.23188564
	RMS   of Stepsize  0.09466692

	Performing Iterative Coordinate Back-Transformation

	  Starting from Previous Position

	  iter:	0	rms: 6.2347263360e-02	maxdev: 9.9714512645e-02
	  iter:	1	rms: 3.8905860271e-03	maxdev: 6.0858241269e-03
	  iter:	2	rms: 2.8560531659e-06	maxdev: 4.6596127917e-06
	  iter:	3	rms: 1.0943834491e-11	maxdev: 2.1158366864e-11	 Success!

	Finished Iterative Coordinate Back-Transformation
 ----------------------------------------------------------------
             Standard Nuclear Orientation (Angstroms)
    I     Atom           X                Y                Z
 ----------------------------------------------------------------
    1      O      -0.7411354605     0.1978054652     0.1130532021
    2      O       0.7411354664    -0.1978054670     0.1130531955
    3      H       1.1185563627     0.6763077370     0.3616942643
    4      H      -1.1185563685    -0.6763077351     0.3616942639
 ----------------------------------------------------------------
 Molecular Point Group                 C2    NOp =  2
 Largest Abelian Subgroup              C2    NOp =  2
 Nuclear Repulsion Energy =          35.25479118 hartrees
 There are        9 alpha and        9 beta electrons

                       Distance Matrix (Angstroms)
             O (  1)   O (  2)   H (  3)
   O (  2)  1.534156
   H (  3)  1.936296  0.984044
   H (  4)  0.984044  1.936296  2.614238
 
 Applying Cartesian multipole field
    Component          Value
    ---------          -----
     (2,0,0)        1.00000E-10
     (0,2,0)        2.00000E-10
     (0,0,2)       -3.00000E-10
 Nucleus-field energy     = 4.6331181129e-09 hartrees
 Requested basis set is 6-31G
 There are 10 shells and 22 basis functions
 A cutoff of  1.0D-12 yielded     55 shell pairs
 There are       277 function pairs
 Smallest overlap matrix eigenvalue = 4.57E-02
 Guess MOs from SCF MO coefficient file

 -----------------------------------------------------------------------
  General SCF calculation program by
  Eric Jon Sundstrom, Paul Horn, Yuezhi Mao, Dmitri Zuev, Alec White,
  David Stuck, Shaama M.S., Shane Yost, Joonho Lee, David Small,
  Daniel Levine, Susi Lehtola, Hugh Burton, Evgeny Epifanovsky,
  Bang C. Huynh
 -----------------------------------------------------------------------
 Exchange:     0.2000 Hartree-Fock + 0.0800 Slater + 0.7200 B88
 Correlation:  0.1900 VWN1RPA + 0.8100 LYP
 Using SG-1 standard quadrature grid
 A restricted SCF calculation will be
 performed using DIIS
 SCF converges when DIIS error is below 1.0e-08
 ---------------------------------------
  Cycle       Energy         DIIS error
 ---------------------------------------
    1    -151.4876471072      5.03e-03  
    2    -151.4909483742      4.69e-04  
    3    -151.4909813705      7.06e-05  
    4    -151.4909817923      6.56e-05  
    5    -151.4909820041      6.59e-06  
    6    -151.4909820106      4.71e-07  
    7    -151.4909820106      1.20e-07  
    8    -151.4909820106      1.79e-07  
    9    -151.4909820106      8.84e-09  Convergence criterion met
 ---------------------------------------
 SCF time:   CPU 0.34s  wall 0.00s 
 SCF   energy =  -151.49098201
 Total energy =  -151.49098201
 
 --------------------------------------------------------------
             Orbital Energies (a.u.) and Symmetries
 --------------------------------------------------------------
 
 Alpha MOs, Restricted
 -- Occupied --                  
-19.206 -19.206  -1.099  -0.917  -0.503  -0.490  -0.391  -0.349
  1 A     1 B     2 A     2 B     3 A     3 B     4 A     5 A                  
 -0.266
  4 B                                                                          
 -- Virtual --                   
 -0.030   0.058   0.103   0.780   0.799   0.838   0.859   0.966
  5 B     6 A     6 B     7 B     7 A     8 A     8 B     9 B                  
  1.021   1.046   1.056   1.364   1.630
  9 A    10 B    10 A    11 A    11 B                                          
 
 Beta MOs, Restricted
 -- Occupied --                  
-19.206 -19.206  -1.099  -0.917  -0.503  -0.490  -0.391  -0.349
  1 A     1 B     2 A     2 B     3 A     3 B     4 A     5 A                  
 -0.266
  4 B                                                                          
 -- Virtual --                   
 -0.030   0.058   0.103   0.780   0.799   0.838   0.859   0.966
  5 B     6 A     6 B     7 B     7 A     8 A     8 B     9 B                  
  1.021   1.046   1.056   1.364   1.630
  9 A    10 B    10 A    11 A    11 B                                          
 --------------------------------------------------------------
 
          Ground-State Mulliken Net Atomic Charges

     Atom                 Charge (a.u.)
  ----------------------------------------
      1 O                    -0.397829
      2 O                    -0.397829
      3 H                     0.397829
      4 H                     0.397829
  ----------------------------------------
  Sum of atomic charges =     0.000000

 -----------------------------------------------------------------
                    Cartesian Multipole Moments
 -----------------------------------------------------------------
    Charge (ESU x 10^10)
                -0.0000
    Dipole Moment (Debye)
         X      -0.0000      Y      -0.0000      Z       1.0728
       Tot       1.0728
    Quadrupole Moments (Debye-Ang)
        XX      -9.2838     XY       4.1226     YY     -10.4504
        XZ       0.0000     YZ       0.0000     ZZ     -12.1312
    Octopole Moments (Debye-Ang^2)
       XXX      -0.0000    XXY       0.0000    XYY      -0.0000
       YYY       0.0000    XXZ       0.2181    XYZ       1.2885
       YYZ      -1.0674    XZZ      -0.0000    YZZ       0.0000
       ZZZ      -4.6563
    Hexadecapole Moments (Debye-Ang^3)
      XXXX     -42.5859   XXXY       6.9234   XXYY      -8.7061
      XYYY       4.7058   YYYY     -12.1124   XXXZ       0.0000
      XXYZ      -0.0000   XYYZ       0.0000   YYYZ      -0.0000
      XXZZ     -10.0362   XYZZ       1.6603   YYZZ      -3.7491
      XZZZ       0.0000   YZZZ      -0.0000   ZZZZ     -10.3503
 -----------------------------------------------------------------
 Calculating analytic gradient of the SCF energy
 Gradient of SCF Energy
            1           2           3           4
    1  -0.0023289   0.0023289  -0.0001401   0.0001401
    2   0.0005981  -0.0005981  -0.0000641   0.0000641
    3  -0.0003173  -0.0003173   0.0003173   0.0003173
 Max gradient component =       2.329E-03
 RMS gradient           =       1.001E-03
 Gradient time:  CPU 0.07 s  wall 0.07 s

     Step 7	:
        Energy is -151.4909820106
                            Maximum         Tolerance       Converged?
         Gradient           1.98129021e-03	3.00000000e-04	false
         Displacement       2.07796877e-01	1.20000000e-03	false
         Energy change      2.97891508e-04	1.00000000e-06	false


	OPTIMIZATION CYCLE:	8

 Scaling Magnitude of Eigenvalues
 	Minimum: -25.00000000	 Maximum: 25.00000000
 6 Hessian Eigenvalues to form next step
   0.00358491   0.20000000   0.20631656   0.49508357   0.50000000
   0.51058544

 Minimum Search taking a RFO step
 Searching for Lambda that minimizes along all modes
	Value of Lambda   -0.00012308
	Norm  of Stepsize  0.16924204
	RMS   of Stepsize  0.06909277

	Performing Iterative Coordinate Back-Transformation

	  Starting from Previous Position

	  iter:	0	rms: 4.5044080882e-02	maxdev: 7.5279268106e-02
	  iter:	1	rms: 2.1086200586e-03	maxdev: 3.3382172461e-03
	  iter:	2	rms: 9.4602821264e-07	maxdev: 1.5313590979e-06	 Success!

	Finished Iterative Coordinate Back-Transformation
 ----------------------------------------------------------------
             Standard Nuclear Orientation (Angstroms)
    I     Atom           X                Y                Z
 ----------------------------------------------------------------
    1      O      -0.7373707844     0.2033104829     0.1532741293
    2      O       0.7373707842    -0.2033104823     0.1532741244
    3      H       1.1253562158     0.6847323701     0.3214733362
    4      H      -1.1253562157    -0.6847323707     0.3214733360
 ----------------------------------------------------------------
 Molecular Point Group                 C2    NOp =  2
 Largest Abelian Subgroup              C2    NOp =  2
 Nuclear Repulsion Energy =          35.33186007 hartrees
 There are        9 alpha and        9 beta electrons

                       Distance Matrix (Angstroms)
             O (  1)   O (  2)   H (  3)
   O (  2)  1.529772
   H (  3)  1.931272  0.983587
   H (  4)  0.983587  1.931272  2.634604
 
 Applying Cartesian multipole field
    Component          Value
    ---------          -----
     (2,0,0)        1.00000E-10
     (0,2,0)        2.00000E-10
     (0,0,2)       -3.00000E-10
 Nucleus-field energy     = 4.5290850789e-09 hartrees
 Requested basis set is 6-31G
 There are 10 shells and 22 basis functions
 A cutoff of  1.0D-12 yielded     55 shell pairs
 There are       277 function pairs
 Smallest overlap matrix eigenvalue = 4.52E-02
 Guess MOs from SCF MO coefficient file

 -----------------------------------------------------------------------
  General SCF calculation program by
  Eric Jon Sundstrom, Paul Horn, Yuezhi Mao, Dmitri Zuev, Alec White,
  David Stuck, Shaama M.S., Shane Yost, Joonho Lee, David Small,
  Daniel Levine, Susi Lehtola, Hugh Burton, Evgeny Epifanovsky,
  Bang C. Huynh
 -----------------------------------------------------------------------
 Exchange:     0.2000 Hartree-Fock + 0.0800 Slater + 0.7200 B88
 Correlation:  0.1900 VWN1RPA + 0.8100 LYP
 Using SG-1 standard quadrature grid
 A restricted SCF calculation will be
 performed using DIIS
 SCF converges when DIIS error is below 1.0e-08
 ---------------------------------------
  Cycle       Energy         DIIS error
 ---------------------------------------
    1    -151.4892892700      3.66e-03  
    2    -151.4910399519      3.38e-04  
    3    -151.4910579838      4.30e-05  
    4    -151.4910582390      3.61e-05  
    5    -151.4910583052      6.32e-06  
    6    -151.4910583097      3.37e-07  
    7    -151.4910583097      4.97e-08  
    8    -151.4910583097      4.63e-09  Convergence criterion met
 ---------------------------------------
 SCF time:   CPU 0.30s  wall 0.00s 
 SCF   energy =  -151.49105831
 Total energy =  -151.49105831
 
 --------------------------------------------------------------
             Orbital Energies (a.u.) and Symmetries
 --------------------------------------------------------------
 
 Alpha MOs, Restricted
 -- Occupied --                  
-19.205 -19.205  -1.100  -0.917  -0.502  -0.492  -0.388  -0.355
  1 A     1 B     2 A     2 B     3 A     3 B     4 A     5 A                  
 -0.263
  4 B                                                                          
 -- Virtual --                   
 -0.028   0.058   0.104   0.780   0.802   0.837   0.861   0.964
  5 B     6 A     6 B     7 B     7 A     8 A     8 B     9 B                  
  1.018   1.047   1.059   1.364   1.633
  9 A    10 B    10 A    11 A    11 B                                          
 
 Beta MOs, Restricted
 -- Occupied --                  
-19.205 -19.205  -1.100  -0.917  -0.502  -0.492  -0.388  -0.355
  1 A     1 B     2 A     2 B     3 A     3 B     4 A     5 A                  
 -0.263
  4 B                                                                          
 -- Virtual --                   
 -0.028   0.058   0.104   0.780   0.802   0.837   0.861   0.964
  5 B     6 A     6 B     7 B     7 A     8 A     8 B     9 B                  
  1.018   1.047   1.059   1.364   1.633
  9 A    10 B    10 A    11 A    11 B                                          
 --------------------------------------------------------------
 
          Ground-State Mulliken Net Atomic Charges

     Atom                 Charge (a.u.)
  ----------------------------------------
      1 O                    -0.398723
      2 O                    -0.398723
      3 H                     0.398723
      4 H                     0.398723
  ----------------------------------------
  Sum of atomic charges =     0.000000

 -----------------------------------------------------------------
                    Cartesian Multipole Moments
 -----------------------------------------------------------------
    Charge (ESU x 10^10)
                 0.0000
    Dipole Moment (Debye)
         X      -0.0000      Y       0.0000      Z       0.7285
       Tot       0.7285
    Quadrupole Moments (Debye-Ang)
        XX      -9.1842     XY       4.2256     YY     -10.3922
        XZ       0.0000     YZ       0.0000     ZZ     -12.3100
    Octopole Moments (Debye-Ang^2)
       XXX      -0.0000    XXY       0.0000    XYY       0.0000
       YYY      -0.0000    XXZ      -0.5333    XYZ       1.2140
       YYZ      -1.5091    XZZ       0.0000    YZZ      -0.0000
       ZZZ      -6.0681
    Hexadecapole Moments (Debye-Ang^3)
      XXXX     -42.0847   XXXY       7.1499   XXYY      -8.5833
      XYYY       4.8665   YYYY     -12.2146   XXXZ       0.0000
      XXYZ      -0.0000   XYYZ       0.0000   YYYZ      -0.0000
      XXZZ     -10.2435   XYZZ       1.6449   YYZZ      -3.9382
      XZZZ       0.0000   YZZZ      -0.0000   ZZZZ     -11.0319
 -----------------------------------------------------------------
 Calculating analytic gradient of the SCF energy
 Gradient of SCF Energy
            1           2           3           4
    1   0.0000941  -0.0000941  -0.0001873   0.0001873
    2  -0.0000443   0.0000443  -0.0000986   0.0000986
    3  -0.0001000  -0.0001000   0.0001000   0.0001000
 Max gradient component =       1.873E-04
 RMS gradient           =       1.123E-04
 Gradient time:  CPU 0.08 s  wall 0.07 s

     Step 8	:
        Energy is -151.4910583097
                            Maximum         Tolerance       Converged?
         Gradient           4.92137298e-04	3.00000000e-04	false
         Displacement       1.50969856e-01	1.20000000e-03	false
         Energy change      7.62990852e-05	1.00000000e-06	false


	OPTIMIZATION CYCLE:	9

 Scaling Magnitude of Eigenvalues
 	Minimum: -25.00000000	 Maximum: 25.00000000
 6 Hessian Eigenvalues to form next step
   0.00244361   0.20000000   0.20851187   0.49668055   0.50000000
   0.53677562

 Minimum Search taking a RFO step
 Searching for Lambda that minimizes along all modes
	Value of Lambda   -0.00001980
	Norm  of Stepsize  0.08859565
	RMS   of Stepsize  0.03616902

	Performing Iterative Coordinate Back-Transformation

	  Starting from Previous Position

	  iter:	0	rms: 2.3560357813e-02	maxdev: 4.0124844912e-02
	  iter:	1	rms: 5.8706420018e-04	maxdev: 9.3282351901e-04
	  iter:	2	rms: 8.0427386621e-08	maxdev: 1.3451221275e-07	 Success!

	Finished Iterative Coordinate Back-Transformation
 ----------------------------------------------------------------
             Standard Nuclear Orientation (Angstroms)
    I     Atom           X                Y                Z
 ----------------------------------------------------------------
    1      O      -0.7365926344     0.2055360746     0.1745850936
    2      O       0.7365926322    -0.2055360732     0.1745850892
    3      H       1.1280406731     0.6879646141     0.3001623716
    4      H      -1.1280406709    -0.6879646155     0.3001623714
 ----------------------------------------------------------------
 Molecular Point Group                 C2    NOp =  2
 Largest Abelian Subgroup              C2    NOp =  2
 Nuclear Repulsion Energy =          35.33879806 hartrees
 There are        9 alpha and        9 beta electrons

                       Distance Matrix (Angstroms)
             O (  1)   O (  2)   H (  3)
   O (  2)  1.529462
   H (  3)  1.930120  0.983537
   H (  4)  0.983537  1.930120  2.642553
 
 Applying Cartesian multipole field
    Component          Value
    ---------          -----
     (2,0,0)        1.00000E-10
     (0,2,0)        2.00000E-10
     (0,0,2)       -3.00000E-10
 Nucleus-field energy     = 4.4522079576e-09 hartrees
 Requested basis set is 6-31G
 There are 10 shells and 22 basis functions
 A cutoff of  1.0D-12 yielded     55 shell pairs
 There are       277 function pairs
 Smallest overlap matrix eigenvalue = 4.51E-02
 Guess MOs from SCF MO coefficient file

 -----------------------------------------------------------------------
  General SCF calculation program by
  Eric Jon Sundstrom, Paul Horn, Yuezhi Mao, Dmitri Zuev, Alec White,
  David Stuck, Shaama M.S., Shane Yost, Joonho Lee, David Small,
  Daniel Levine, Susi Lehtola, Hugh Burton, Evgeny Epifanovsky,
  Bang C. Huynh
 -----------------------------------------------------------------------
 Exchange:     0.2000 Hartree-Fock + 0.0800 Slater + 0.7200 B88
 Correlation:  0.1900 VWN1RPA + 0.8100 LYP
 Using SG-1 standard quadrature grid
 A restricted SCF calculation will be
 performed using DIIS
 SCF converges when DIIS error is below 1.0e-08
 ---------------------------------------
  Cycle       Energy         DIIS error
 ---------------------------------------
    1    -151.4905895226      1.91e-03  
    2    -151.4910683047      1.76e-04  
    3    -151.4910733510      1.96e-05  
    4    -151.4910734282      1.36e-05  
    5    -151.4910734383      4.32e-06  
    6    -151.4910734398      1.99e-07  
    7    -151.4910734398      4.31e-08  
    8    -151.4910734398      5.27e-08  
    9    -151.4910734398      4.78e-09  Convergence criterion met
 ---------------------------------------
 SCF time:   CPU 0.34s  wall 0.00s 
 SCF   energy =  -151.49107344
 Total energy =  -151.49107344
 
 --------------------------------------------------------------
             Orbital Energies (a.u.) and Symmetries
 --------------------------------------------------------------
 
 Alpha MOs, Restricted
 -- Occupied --                  
-19.205 -19.205  -1.100  -0.916  -0.501  -0.493  -0.387  -0.358
  1 A     1 B     2 A     2 B     3 A     3 B     4 A     5 A                  
 -0.262
  4 B                                                                          
 -- Virtual --                   
 -0.027   0.058   0.104   0.779   0.803   0.836   0.862   0.964
  5 B     6 A     6 B     7 B     7 A     8 A     8 B     9 B                  
  1.017   1.048   1.060   1.363   1.634
  9 A    10 B    10 A    11 A    11 B                                          
 
 Beta MOs, Restricted
 -- Occupied --                  
-19.205 -19.205  -1.100  -0.916  -0.501  -0.493  -0.387  -0.358
  1 A     1 B     2 A     2 B     3 A     3 B     4 A     5 A                  
 -0.262
  4 B                                                                          
 -- Virtual --                   
 -0.027   0.058   0.104   0.779   0.803   0.836   0.862   0.964
  5 B     6 A     6 B     7 B     7 A     8 A     8 B     9 B                  
  1.017   1.048   1.060   1.363   1.634
  9 A    10 B    10 A    11 A    11 B                                          
 --------------------------------------------------------------
 
          Ground-State Mulliken Net Atomic Charges

     Atom                 Charge (a.u.)
  ----------------------------------------
      1 O                    -0.399035
      2 O                    -0.399035
      3 H                     0.399035
      4 H                     0.399035
  ----------------------------------------
  Sum of atomic charges =     0.000000

 -----------------------------------------------------------------
                    Cartesian Multipole Moments
 -----------------------------------------------------------------
    Charge (ESU x 10^10)
                -0.0000
    Dipole Moment (Debye)
         X       0.0000      Y      -0.0000      Z       0.5445
       Tot       0.5445
    Quadrupole Moments (Debye-Ang)
        XX      -9.1457     XY       4.2638     YY     -10.3706
        XZ       0.0000     YZ      -0.0000     ZZ     -12.4043
    Octopole Moments (Debye-Ang^2)
       XXX       0.0000    XXY      -0.0000    XYY       0.0000
       YYY      -0.0000    XXZ      -0.9391    XYZ       1.1702
       YYZ      -1.7463    XZZ       0.0000    YZZ      -0.0000
       ZZZ      -6.8177
    Hexadecapole Moments (Debye-Ang^3)
      XXXX     -41.9524   XXXY       7.2423   XXYY      -8.5470
      XYYY       4.9334   YYYY     -12.2583   XXXZ       0.0000
      XXYZ      -0.0000   XYYZ       0.0000   YYYZ      -0.0000
      XXZZ     -10.3915   XYZZ       1.6332   YYZZ      -4.0454
      XZZZ       0.0000   YZZZ      -0.0000   ZZZZ     -11.4914
[...]
 -0.261
  4 B                                                                          
 -- Virtual --                   
 -0.028   0.058   0.105   0.779   0.804   0.835   0.862   0.963
  5 B     6 A     6 B     7 B     7 A     8 A     8 B     9 B                  
  1.016   1.049   1.061   1.362   1.636
  9 A    10 B    10 A    11 A    11 B                                          
 
 Beta MOs, Restricted
 -- Occupied --                  
-19.205 -19.205  -1.099  -0.917  -0.500  -0.493  -0.385  -0.360
  1 A     1 B     2 A     2 B     3 A     3 B     4 A     5 A                  
 -0.261
  4 B                                                                          
 -- Virtual --                   
 -0.028   0.058   0.105   0.779   0.804   0.835   0.862   0.963
  5 B     6 A     6 B     7 B     7 A     8 A     8 B     9 B                  
  1.016   1.049   1.061   1.362   1.636
  9 A    10 B    10 A    11 A    11 B                                          
 --------------------------------------------------------------
 
          Ground-State Mulliken Net Atomic Charges

     Atom                 Charge (a.u.)
  ----------------------------------------
      1 O                    -0.399308
      2 O                    -0.399308
      3 H                     0.399308
      4 H                     0.399308
  ----------------------------------------
  Sum of atomic charges =     0.000000

 -----------------------------------------------------------------
                    Cartesian Multipole Moments
 -----------------------------------------------------------------
    Charge (ESU x 10^10)
                 0.0000
    Dipole Moment (Debye)
         X      -0.0000      Y       0.0000      Z       0.2786
       Tot       0.2786
    Quadrupole Moments (Debye-Ang)
        XX      -9.1094     XY       4.2987     YY     -10.3507
        XZ       0.0000     YZ       0.0000     ZZ     -12.5377
    Octopole Moments (Debye-Ang^2)
       XXX      -0.0000    XXY       0.0000    XYY       0.0000
       YYY       0.0000    XXZ      -1.5314    XYZ       1.1016
       YYZ      -2.0911    XZZ       0.0000    YZZ       0.0000
       ZZZ      -7.8974
    Hexadecapole Moments (Debye-Ang^3)
      XXXX     -41.8808   XXXY       7.3352   XXYY      -8.5227
      XYYY       5.0025   YYYY     -12.3033   XXXZ       0.0000
      XXYZ       0.0000   XYYZ       0.0000   YYYZ      -0.0000
      XXZZ     -10.6411   XYZZ       1.6113   YYZZ      -4.2056
      XZZZ       0.0000   YZZZ      -0.0000   ZZZZ     -12.2718
 -----------------------------------------------------------------
 Calculating analytic gradient of the SCF energy
 Gradient of SCF Energy
            1           2           3           4
    1   0.0003427  -0.0003427  -0.0001417   0.0001417
    2   0.0000378  -0.0000378  -0.0000148   0.0000148
    3  -0.0000321  -0.0000321   0.0000321   0.0000321
 Max gradient component =       3.427E-04
 RMS gradient           =       1.534E-04
 Gradient time:  CPU 0.07 s  wall 0.07 s

     Step 10	:
        Energy is -151.4910861928
                            Maximum         Tolerance       Converged?
         Gradient           5.19897757e-04	3.00000000e-04	false
         Displacement       1.10717625e-01	1.20000000e-03	false
         Energy change      1.27529818e-05	1.00000000e-06	false


	OPTIMIZATION CYCLE:	11

 Scaling Magnitude of Eigenvalues
 	Minimum: -25.00000000	 Maximum: 25.00000000
 6 Hessian Eigenvalues to form next step
   0.00059554   0.20000000   0.21299211   0.49863761   0.50000000
   0.51182158

 Minimum Search taking a RFO step
 Searching for Lambda that minimizes along all modes
	Value of Lambda   -0.00000734
	Norm  of Stepsize  0.10506721
	RMS   of Stepsize  0.04289351

	Performing Iterative Coordinate Back-Transformation

	  Starting from Previous Position

	  iter:	0	rms: 2.7930173531e-02	maxdev: 4.8233956574e-02
	  iter:	1	rms: 8.3747262318e-04	maxdev: 1.3613947712e-03
	  iter:	2	rms: 1.8042897667e-07	maxdev: 2.9719367653e-07	 Success!

	Finished Iterative Coordinate Back-Transformation
 ----------------------------------------------------------------
             Standard Nuclear Orientation (Angstroms)
    I     Atom           X                Y                Z
 ----------------------------------------------------------------
    1      O      -0.7367726889     0.2085254313     0.2308349460
    2      O       0.7367726857    -0.2085254297     0.2308349417
    3      H       1.1316191285     0.6920659506     0.2439125192
    4      H      -1.1316191253    -0.6920659522     0.2439125190
 ----------------------------------------------------------------
 Molecular Point Group                 C2    NOp =  2
 Largest Abelian Subgroup              C2    NOp =  2
 Nuclear Repulsion Energy =          35.31081686 hartrees
 There are        9 alpha and        9 beta electrons

                       Distance Matrix (Angstroms)
             O (  1)   O (  2)   H (  3)
   O (  2)  1.531427
   H (  3)  1.929992  0.983433
   H (  4)  0.983433  1.929992  2.652936
 
 Applying Cartesian multipole field
    Component          Value
    ---------          -----
     (2,0,0)        1.00000E-10
     (0,2,0)        2.00000E-10
     (0,0,2)       -3.00000E-10
 Nucleus-field energy     = 4.1564020434e-09 hartrees
 Requested basis set is 6-31G
 There are 10 shells and 22 basis functions
 A cutoff of  1.0D-12 yielded     55 shell pairs
 There are       277 function pairs
 Smallest overlap matrix eigenvalue = 4.52E-02
 Guess MOs from SCF MO coefficient file

 -----------------------------------------------------------------------
  General SCF calculation program by
  Eric Jon Sundstrom, Paul Horn, Yuezhi Mao, Dmitri Zuev, Alec White,
  David Stuck, Shaama M.S., Shane Yost, Joonho Lee, David Small,
  Daniel Levine, Susi Lehtola, Hugh Burton, Evgeny Epifanovsky,
  Bang C. Huynh
 -----------------------------------------------------------------------
 Exchange:     0.2000 Hartree-Fock + 0.0800 Slater + 0.7200 B88
 Correlation:  0.1900 VWN1RPA + 0.8100 LYP
 Using SG-1 standard quadrature grid
 A restricted SCF calculation will be
 performed using DIIS
 SCF converges when DIIS error is below 1.0e-08
 ---------------------------------------
  Cycle       Energy         DIIS error
 ---------------------------------------
    1    -151.4904096949      2.27e-03  
    2    -151.4910830658      2.11e-04  
    3    -151.4910902505      5.58e-05  
    4    -151.4910903980      4.48e-05  
    5    -151.4910904990      2.76e-06  
    6    -151.4910905009      2.33e-07  
    7    -151.4910905009      6.53e-08  
    8    -151.4910905009      9.45e-08  
    9    -151.4910905009      3.40e-09  Convergence criterion met
 ---------------------------------------
 SCF time:   CPU 0.33s  wall 0.00s 
 SCF   energy =  -151.49109050
 Total energy =  -151.49109050
 
 --------------------------------------------------------------
             Orbital Energies (a.u.) and Symmetries
 --------------------------------------------------------------
 
 Alpha MOs, Restricted
 -- Occupied --                  
-19.205 -19.205  -1.099  -0.917  -0.500  -0.493  -0.384  -0.362
  1 A     1 B     2 A     2 B     3 A     3 B     4 A     5 A                  
 -0.261
  4 B                                                                          
 -- Virtual --                   
 -0.028   0.057   0.105   0.779   0.805   0.835   0.863   0.963
  5 B     6 A     6 B     7 B     7 A     8 A     8 B     9 B                  
  1.015   1.049   1.062   1.361   1.636
  9 A    10 B    10 A    11 A    11 B                                          
 
 Beta MOs, Restricted
 -- Occupied --                  
-19.205 -19.205  -1.099  -0.917  -0.500  -0.493  -0.384  -0.362
  1 A     1 B     2 A     2 B     3 A     3 B     4 A     5 A                  
 -0.261
  4 B                                                                          
 -- Virtual --                   
 -0.028   0.057   0.105   0.779   0.805   0.835   0.863   0.963
  5 B     6 A     6 B     7 B     7 A     8 A     8 B     9 B                  
  1.015   1.049   1.062   1.361   1.636
  9 A    10 B    10 A    11 A    11 B                                          
 --------------------------------------------------------------
 
          Ground-State Mulliken Net Atomic Charges

     Atom                 Charge (a.u.)
  ----------------------------------------
      1 O                    -0.399388
      2 O                    -0.399388
      3 H                     0.399388
      4 H                     0.399388
  ----------------------------------------
  Sum of atomic charges =     0.000000

 -----------------------------------------------------------------
                    Cartesian Multipole Moments
 -----------------------------------------------------------------
    Charge (ESU x 10^10)
                 0.0000
    Dipole Moment (Debye)
         X       0.0000      Y      -0.0000      Z       0.0568
       Tot       0.0568
    Quadrupole Moments (Debye-Ang)
        XX      -9.0955     XY       4.3109     YY     -10.3437
        XZ       0.0000     YZ      -0.0000     ZZ     -12.6460
    Octopole Moments (Debye-Ang^2)
       XXX       0.0000    XXY      -0.0000    XYY       0.0000
       YYY      -0.0000    XXZ      -2.0304    XYZ       1.0399
       YYZ      -2.3808    XZZ       0.0000    YZZ      -0.0000
       ZZZ      -8.7954
    Hexadecapole Moments (Debye-Ang^3)
      XXXX     -41.8847   XXXY       7.3707   XXYY      -8.5190
      XYYY       5.0275   YYYY     -12.3188   XXXZ       0.0000
      XXYZ      -0.0000   XYYZ       0.0000   YYYZ      -0.0000
      XXZZ     -10.8736   XYZZ       1.5861   YYZZ      -4.3423
      XZZZ       0.0000   YZZZ      -0.0000   ZZZZ     -13.0275
 -----------------------------------------------------------------
 Calculating analytic gradient of the SCF energy
 Gradient of SCF Energy
            1           2           3           4
    1  -0.0000143   0.0000143  -0.0001036   0.0001036
    2   0.0001036  -0.0001036  -0.0000205   0.0000205
    3  -0.0000067  -0.0000067   0.0000067   0.0000067
 Max gradient component =       1.036E-04
 RMS gradient           =       6.077E-05
 Gradient time:  CPU 0.07 s  wall 0.07 s

     Step 11	:
        Energy is -151.4910905009
                            Maximum         Tolerance       Converged?
         Gradient           2.59598122e-04	3.00000000e-04	true
         Displacement       9.16181122e-02	1.20000000e-03	false
         Energy change      4.30808211e-06	1.00000000e-06	false


	OPTIMIZATION CYCLE:	12

 Scaling Magnitude of Eigenvalues
 	Minimum: -25.00000000	 Maximum: 25.00000000
 6 Hessian Eigenvalues to form next step
   0.00051486   0.20000000   0.21374670   0.48903658   0.50000000
   0.50120016

 Minimum Search taking a RFO step
 Searching for Lambda that minimizes along all modes
	Value of Lambda   -0.00000054
	Norm  of Stepsize  0.02298280
	RMS   of Stepsize  0.00938269

	Performing Iterative Coordinate Back-Transformation

	  Starting from Previous Position

	  iter:	0	rms: 6.1161793826e-03	maxdev: 1.0569497695e-02
	  iter:	1	rms: 4.0136538591e-05	maxdev: 6.5398759161e-05
	  iter:	2	rms: 4.0931481277e-10	maxdev: 6.8513774299e-10	 Success!

	Finished Iterative Coordinate Back-Transformation
 ----------------------------------------------------------------
             Standard Nuclear Orientation (Angstroms)
    I     Atom           X                Y                Z
 ----------------------------------------------------------------
    1      O      -0.7368446851     0.2083644677     0.2364282453
    2      O       0.7368446848    -0.2083644676     0.2364282410
    3      H       1.1320596050     0.6922172685     0.2383192199
    4      H      -1.1320596046    -0.6922172686     0.2383192197
 ----------------------------------------------------------------
 Molecular Point Group                 C2    NOp =  2
 Largest Abelian Subgroup              C2    NOp =  2
 Nuclear Repulsion Energy =          35.30833340 hartrees
 There are        9 alpha and        9 beta electrons

                       Distance Matrix (Angstroms)
             O (  1)   O (  2)   H (  3)
   O (  2)  1.531478
   H (  3)  1.930523  0.983487
   H (  4)  0.983487  1.930523  2.653845
 
 Applying Cartesian multipole field
    Component          Value
    ---------          -----
     (2,0,0)        1.00000E-10
     (0,2,0)        2.00000E-10
     (0,0,2)       -3.00000E-10
 Nucleus-field energy     = 4.1182330164e-09 hartrees
 Requested basis set is 6-31G
 There are 10 shells and 22 basis functions
 A cutoff of  1.0D-12 yielded     55 shell pairs
 There are       277 function pairs
 Smallest overlap matrix eigenvalue = 4.52E-02
 Guess MOs from SCF MO coefficient file

 -----------------------------------------------------------------------
  General SCF calculation program by
  Eric Jon Sundstrom, Paul Horn, Yuezhi Mao, Dmitri Zuev, Alec White,
  David Stuck, Shaama M.S., Shane Yost, Joonho Lee, David Small,
  Daniel Levine, Susi Lehtola, Hugh Burton, Evgeny Epifanovsky,
  Bang C. Huynh
 -----------------------------------------------------------------------
 Exchange:     0.2000 Hartree-Fock + 0.0800 Slater + 0.7200 B88
 Correlation:  0.1900 VWN1RPA + 0.8100 LYP
 Using SG-1 standard quadrature grid
 A restricted SCF calculation will be
 performed using DIIS
 SCF converges when DIIS error is below 1.0e-08
 ---------------------------------------
  Cycle       Energy         DIIS error
 ---------------------------------------
    1    -151.4910582517      4.97e-04  
    2    -151.4910904440      4.56e-05  
    3    -151.4910907890      8.24e-06  
    4    -151.4910907944      7.36e-06  
    5    -151.4910907971      7.19e-07  
    6    -151.4910907972      4.60e-08  
    7    -151.4910907972      4.02e-09  Convergence criterion met
 ---------------------------------------
 SCF time:   CPU 0.27s  wall 0.00s 
 SCF   energy =  -151.49109080
 Total energy =  -151.49109080
 
 --------------------------------------------------------------
             Orbital Energies (a.u.) and Symmetries
 --------------------------------------------------------------
 
 Alpha MOs, Restricted
 -- Occupied --                  
-19.205 -19.205  -1.099  -0.917  -0.500  -0.493  -0.384  -0.361
  1 A     1 B     2 A     2 B     3 A     3 B     4 A     5 A                  
 -0.261
  4 B                                                                          
 -- Virtual --                   
 -0.028   0.057   0.105   0.779   0.805   0.835   0.863   0.963
  5 B     6 A     6 B     7 B     7 A     8 A     8 B     9 B                  
  1.016   1.049   1.062   1.361   1.636
  9 A    10 B    10 A    11 A    11 B                                          
 
 Beta MOs, Restricted
 -- Occupied --                  
-19.205 -19.205  -1.099  -0.917  -0.500  -0.493  -0.384  -0.361
  1 A     1 B     2 A     2 B     3 A     3 B     4 A     5 A                  
 -0.261
  4 B                                                                          
 -- Virtual --                   
 -0.028   0.057   0.105   0.779   0.805   0.835   0.863   0.963
  5 B     6 A     6 B     7 B     7 A     8 A     8 B     9 B                  
  1.016   1.049   1.062   1.361   1.636
  9 A    10 B    10 A    11 A    11 B                                          
 --------------------------------------------------------------
 
          Ground-State Mulliken Net Atomic Charges

     Atom                 Charge (a.u.)
  ----------------------------------------
      1 O                    -0.399382
      2 O                    -0.399382
      3 H                     0.399382
      4 H                     0.399382
  ----------------------------------------
  Sum of atomic charges =     0.000000

 -----------------------------------------------------------------
                    Cartesian Multipole Moments
 -----------------------------------------------------------------
    Charge (ESU x 10^10)
                -0.0000
    Dipole Moment (Debye)
         X       0.0000      Y      -0.0000      Z       0.0082
       Tot       0.0082
    Quadrupole Moments (Debye-Ang)
        XX      -9.0920     XY       4.3127     YY     -10.3428
        XZ       0.0000     YZ      -0.0000     ZZ     -12.6693
    Octopole Moments (Debye-Ang^2)
       XXX       0.0000    XXY      -0.0000    XYY      -0.0000
       YYY      -0.0000    XXZ      -2.1396    XYZ       1.0261
       YYZ      -2.4443    XZZ      -0.0000    YZZ      -0.0000
       ZZZ      -8.9917
    Hexadecapole Moments (Debye-Ang^3)
      XXXX     -41.8858   XXXY       7.3727   XXYY      -8.5177
      XYYY       5.0244   YYYY     -12.3152   XXXZ       0.0000
      XXYZ      -0.0000   XYYZ       0.0000   YYYZ      -0.0000
      XXZZ     -10.9273   XYZZ       1.5778   YYZZ      -4.3717
      XZZZ       0.0000   YZZZ      -0.0000   ZZZZ     -13.2057
 -----------------------------------------------------------------
 Calculating analytic gradient of the SCF energy
 Gradient of SCF Energy
            1           2           3           4
    1  -0.0000370   0.0000370  -0.0000011   0.0000011
    2   0.0000342  -0.0000342  -0.0000071   0.0000071
    3  -0.0000010  -0.0000010   0.0000010   0.0000010
 Max gradient component =       3.697E-05
 RMS gradient           =       2.077E-05
 Gradient time:  CPU 0.07 s  wall 0.07 s

     Step 12	:
        Energy is -151.4910907972
                            Maximum         Tolerance       Converged?
         Gradient           4.14589014e-05	3.00000000e-04	true
         Displacement       2.00243380e-02	1.20000000e-03	false
         Energy change      2.96361293e-07	1.00000000e-06	true

	 Optimization Converged in 12 cycles

 *****************************************************
             End of BFGS Algorithm
 *****************************************************
		----------------------------------
		   Verification of Optimization
		----------------------------------

 Eigenvalues of Hessian in Optimization Verification
   0.00048102   0.19358098   0.20000000   0.49941329   0.50000000
   0.51510232

 Found a minimum
		---------------------------------
		       End of Verification
		---------------------------------

 Final energy is -151.491090797235

	******************************
	**  OPTIMIZATION CONVERGED  **
	******************************
 ----------------------------------------------------------------
             Standard Nuclear Orientation (Angstroms)
    I     Atom           X                Y                Z
 ----------------------------------------------------------------
    1      O      -0.7368446851     0.2083644677     0.2364282453
    2      O       0.7368446848    -0.2083644676     0.2364282410
    3      H       1.1320596050     0.6922172685     0.2383192199
    4      H      -1.1320596046    -0.6922172686     0.2383192197
 ----------------------------------------------------------------
 Molecular Point Group                 C2    NOp =  2
 Largest Abelian Subgroup              C2    NOp =  2
 Nuclear Repulsion Energy =          35.30833340 hartrees
 There are        9 alpha and        9 beta electrons

Z-matrix Print:
$molecule
0 1
O 
H  1 0.983487
O  1 1.531478 2 97.904159
H  3 0.983487 1 97.904159 2 -179.777558 0
$end

 -----------------------------------------------------------------------
                  END OF GEOMETRY OPTIMIZER USING LIBOPT3               
 -----------------------------------------------------------------------
 Total job time:  5.52s(wall), 5.50s(cpu) 
 Wed Apr 24 15:10:52 2024

        *************************************************************
        *                                                           *
        *  Thank you very much for using Q-Chem.  Have a nice day.  *
        *                                                           *
        *************************************************************


