Jobname.Temp
SP        U                             6-31G               
Number of atoms                            I                1
Charge                                     I                0
Multiplicity                               I                3
Number of electrons                        I               12
Number of alpha electrons                  I                7
Number of beta electrons                   I                5
Atomic numbers                             I   N=           1
          12
Current cartesian coordinates              R   N=           3
 -8.88178420E-16  0.00000000E+00  0.00000000E+00
Nuclear charges                            R   N=           1
  1.20000000E+01
Number of basis functions                  I               13
Number of contracted shells                I                4
Number of primitive shells                 I               16
Highest angular momentum                   I                1
Largest degree of contraction              I                6
Shell types                                I   N=           4
           0          -1          -1          -1
Number of primitives per shell             I   N=           4
           6           6           3           1
Shell to atom map                          I   N=           4
           1           1           1           1
Primitive exponents                        R   N=          16
  1.17228000E+04  1.75993000E+03  4.00846000E+02  1.12807000E+02  3.59997000E+01
  1.21828000E+01  1.89180000E+02  4.52119000E+01  1.43563000E+01  5.13886000E+00
  1.90652000E+00  7.05887000E-01  9.29340000E-01  2.69035000E-01  1.17379000E-01
  4.21061000E-02
Contraction coefficients                   R   N=          16
  1.97779911E-03  1.51139932E-02  7.39109667E-02  2.49190888E-01  4.87927780E-01
  3.19661856E-01 -3.23720052E-03 -4.10080066E-02 -1.12600018E-01  1.48633024E-01
  6.16497099E-01  3.64829058E-01 -2.12290898E-01 -1.07985457E-01  1.17584498E+00
  1.00000000E+00
P(S=P) Contraction coefficients            R   N=          16
  0.00000000E+00  0.00000000E+00  0.00000000E+00  0.00000000E+00  0.00000000E+00
  0.00000000E+00  4.92809966E-03  3.49889976E-02  1.40724990E-01  3.33641977E-01
  4.44939969E-01  2.69253981E-01 -2.24189990E-02  1.92269991E-01  8.46180961E-01
  1.00000000E+00
Coordinates of each shell                  R   N=          12
 -8.88178420E-16  0.00000000E+00  0.00000000E+00 -8.88178420E-16  0.00000000E+00
  0.00000000E+00 -8.88178420E-16  0.00000000E+00  0.00000000E+00 -8.88178420E-16
  0.00000000E+00  0.00000000E+00
Orthonormalization Matrix                  R   N=          91
  1.02329595E+00 -1.45039395E-02 -3.46944695E-18  1.35074596E-17  2.84494650E-16
  1.31699649E+00  1.35013554E-17 -3.33066907E-16 -5.26500373E-01 -2.26550820E-16
 -1.51770815E-17 -5.20297191E-18 -6.28159634E-18 -4.19552359E-17 -1.46790805E-01
  3.12117748E-02  1.45320280E-17  2.44429221E-16  3.64464266E-16 -1.46790805E-01
  6.94383688E-17  2.44429221E-16  2.74086309E-16 -7.51826444E-17 -6.15939416E-16
  1.31699649E+00  3.12117748E-02 -8.17258915E-02 -4.64208939E-18  2.84494650E-16
  4.43167638E-17  6.18175858E-16 -5.26500373E-01 -2.83194367E-17  1.69915957E+00
 -6.15939416E-16 -6.69896019E-18 -1.94289029E-16 -4.22296746E-17 -4.64208939E-18
 -3.51752650E-17 -7.23278740E-18 -9.50058003E-01 -1.83088756E-16  1.04763880E-16
 -1.27322763E-01  2.74086309E-16 -1.46790805E-01 -4.19552359E-17 -1.54410634E-16
 -7.37257477E-17  5.04777426E-16  5.06044901E-16 -1.46790805E-01 -1.27322763E-01
  1.05537346E-16  1.31838984E-16  4.66005909E-02  9.29322198E-17  3.79379691E-17
 -3.46944695E-18 -6.28159634E-18 -6.98946916E-16  4.66005909E-02  1.98796645E-17
 -8.17258915E-02  9.05824294E-17  1.98796645E-17  5.04777426E-16 -1.97233739E-16
  1.02325774E+00  6.59194921E-17 -1.50514367E-16  9.05824294E-17  3.29210404E-16
 -5.20297191E-18 -6.29795571E-02 -1.51783187E-16  3.79379691E-17 -2.83194367E-17
 -7.51826444E-17  4.23889168E-17 -1.46790805E-01 -7.37257477E-17  1.02325774E+00
 -1.97233739E-16 -1.92547069E-16 -1.22608330E-18  1.05537346E-16 -1.42959426E-16
  1.02325774E+00
Overlap Matrix                             R   N=          91
  1.00000000E+00  2.38750879E-01  1.00000000E+00  7.47624103E-32  2.27469038E-31
  1.00000000E+00  0.00000000E+00  0.00000000E+00  0.00000000E+00  1.00000000E+00
  0.00000000E+00  0.00000000E+00  0.00000000E+00  0.00000000E+00  1.00000000E+00
  1.91224302E-03  2.21999199E-01 -1.49458610E-32  0.00000000E+00  0.00000000E+00
  1.00000000E+00  1.80364442E-36 -1.45059018E-33  2.24594169E-01  0.00000000E+00
  0.00000000E+00  6.72278098E-32  1.00000000E+00  0.00000000E+00  0.00000000E+00
  0.00000000E+00  2.24594169E-01  0.00000000E+00  0.00000000E+00  0.00000000E+00
  1.00000000E+00  0.00000000E+00  0.00000000E+00  0.00000000E+00  0.00000000E+00
  2.24594169E-01  0.00000000E+00  0.00000000E+00  0.00000000E+00  1.00000000E+00
  2.36581638E-02  2.17538452E-01  0.00000000E+00  0.00000000E+00  0.00000000E+00
  8.57062971E-01  0.00000000E+00  0.00000000E+00  0.00000000E+00  1.00000000E+00
  5.91777977E-37  0.00000000E+00  6.42670126E-02  0.00000000E+00  0.00000000E+00
  0.00000000E+00  6.89592226E-01  0.00000000E+00  0.00000000E+00  0.00000000E+00
  1.00000000E+00  0.00000000E+00  0.00000000E+00  0.00000000E+00  6.42670126E-02
  0.00000000E+00  0.00000000E+00  0.00000000E+00  6.89592226E-01  0.00000000E+00
  0.00000000E+00  0.00000000E+00  1.00000000E+00  0.00000000E+00  0.00000000E+00
  0.00000000E+00  0.00000000E+00  6.42670126E-02  0.00000000E+00  0.00000000E+00
  0.00000000E+00  6.89592226E-01  0.00000000E+00  0.00000000E+00  0.00000000E+00
  1.00000000E+00
Kinetic Energy Matrix                      R   N=          91
  6.76502062E+01 -3.22454065E+00  2.50427952E+00  0.00000000E+00  0.00000000E+00
  7.82728953E+00  0.00000000E+00  0.00000000E+00  0.00000000E+00  7.82728953E+00
  0.00000000E+00  0.00000000E+00  0.00000000E+00  0.00000000E+00  7.82728953E+00
 -1.13707591E-01 -2.24643102E-01  0.00000000E+00  0.00000000E+00  0.00000000E+00
  1.99670313E-01  0.00000000E+00  0.00000000E+00  1.18177645E-01  0.00000000E+00
  0.00000000E+00  0.00000000E+00  3.32043614E-01  0.00000000E+00  0.00000000E+00
  0.00000000E+00  1.18177645E-01  0.00000000E+00  0.00000000E+00  0.00000000E+00
  3.32043614E-01  0.00000000E+00  0.00000000E+00  0.00000000E+00  0.00000000E+00
  1.18177645E-01  0.00000000E+00  0.00000000E+00  0.00000000E+00  3.32043614E-01
  2.98150284E-03  2.63932290E-02  0.00000000E+00  0.00000000E+00  0.00000000E+00
  7.71487264E-02  0.00000000E+00  0.00000000E+00  0.00000000E+00  6.31591500E-02
  0.00000000E+00  0.00000000E+00  1.29693554E-02  0.00000000E+00  0.00000000E+00
  0.00000000E+00  1.08757166E-01  0.00000000E+00  0.00000000E+00  0.00000000E+00
  1.05265250E-01  0.00000000E+00  0.00000000E+00  0.00000000E+00  1.29693554E-02
  0.00000000E+00  0.00000000E+00  0.00000000E+00  1.08757166E-01  0.00000000E+00
  0.00000000E+00  0.00000000E+00  1.05265250E-01  0.00000000E+00  0.00000000E+00
  0.00000000E+00  0.00000000E+00  1.29693554E-02  0.00000000E+00  0.00000000E+00
  0.00000000E+00  1.08757166E-01  0.00000000E+00  0.00000000E+00  0.00000000E+00
  1.05265250E-01
Nuclear Attraction Matrix                  R   N=          91
 -1.39563170E+02 -1.32117770E+01 -2.18454252E+01  0.00000000E+00  0.00000000E+00
 -2.35524689E+01  0.00000000E+00  0.00000000E+00  0.00000000E+00 -2.35524689E+01
  0.00000000E+00  0.00000000E+00  0.00000000E+00  0.00000000E+00 -2.35524689E+01
 -2.62394697E-02 -2.42524492E+00  0.00000000E+00  0.00000000E+00  0.00000000E+00
 -5.18394230E+00  0.00000000E+00  0.00000000E+00 -2.49056113E+00  0.00000000E+00
  0.00000000E+00  0.00000000E+00 -4.69901226E+00  0.00000000E+00  0.00000000E+00
  0.00000000E+00 -2.49056113E+00  0.00000000E+00  0.00000000E+00  0.00000000E+00
 -4.69901226E+00  0.00000000E+00  0.00000000E+00  0.00000000E+00  0.00000000E+00
 -2.49056113E+00  0.00000000E+00  0.00000000E+00  0.00000000E+00 -4.69901226E+00
 -1.65518269E+00 -3.24841177E+00  0.00000000E+00  0.00000000E+00  0.00000000E+00
 -4.06547300E+00  0.00000000E+00  0.00000000E+00  0.00000000E+00 -3.92937802E+00
  0.00000000E+00  0.00000000E+00 -6.73144887E-01  0.00000000E+00  0.00000000E+00
  0.00000000E+00 -2.57988577E+00  0.00000000E+00  0.00000000E+00  0.00000000E+00
 -2.61958535E+00  0.00000000E+00  0.00000000E+00  0.00000000E+00 -6.73144887E-01
  0.00000000E+00  0.00000000E+00  0.00000000E+00 -2.57988577E+00  0.00000000E+00
  0.00000000E+00  0.00000000E+00 -2.61958535E+00  0.00000000E+00  0.00000000E+00
  0.00000000E+00  0.00000000E+00 -6.73144887E-01  0.00000000E+00  0.00000000E+00
  0.00000000E+00 -2.57988577E+00  0.00000000E+00  0.00000000E+00  0.00000000E+00
 -2.61958535E+00
Core Hamiltonian Matrix                    R   N=          91
 -7.19129634E+01 -1.64363176E+01 -1.93411457E+01  0.00000000E+00  0.00000000E+00
 -1.57251793E+01  0.00000000E+00  0.00000000E+00  0.00000000E+00 -1.57251793E+01
  0.00000000E+00  0.00000000E+00  0.00000000E+00  0.00000000E+00 -1.57251793E+01
 -1.39947061E-01 -2.64988803E+00  0.00000000E+00  0.00000000E+00  0.00000000E+00
 -4.98427199E+00  0.00000000E+00  0.00000000E+00 -2.37238349E+00  0.00000000E+00
  0.00000000E+00  0.00000000E+00 -4.36696865E+00  0.00000000E+00  0.00000000E+00
  0.00000000E+00 -2.37238349E+00  0.00000000E+00  0.00000000E+00  0.00000000E+00
 -4.36696865E+00  0.00000000E+00  0.00000000E+00  0.00000000E+00  0.00000000E+00
 -2.37238349E+00  0.00000000E+00  0.00000000E+00  0.00000000E+00 -4.36696865E+00
 -1.65220119E+00 -3.22201854E+00  0.00000000E+00  0.00000000E+00  0.00000000E+00
 -3.98832428E+00  0.00000000E+00  0.00000000E+00  0.00000000E+00 -3.86621887E+00
  0.00000000E+00  0.00000000E+00 -6.60175532E-01  0.00000000E+00  0.00000000E+00
  0.00000000E+00 -2.47112860E+00  0.00000000E+00  0.00000000E+00  0.00000000E+00
 -2.51432010E+00  0.00000000E+00  0.00000000E+00  0.00000000E+00 -6.60175532E-01
  0.00000000E+00  0.00000000E+00  0.00000000E+00 -2.47112860E+00  0.00000000E+00
  0.00000000E+00  0.00000000E+00 -2.51432010E+00  0.00000000E+00  0.00000000E+00
  0.00000000E+00  0.00000000E+00 -6.60175532E-01  0.00000000E+00  0.00000000E+00
  0.00000000E+00 -2.47112860E+00  0.00000000E+00  0.00000000E+00  0.00000000E+00
 -2.51432010E+00
Multipole Matrix (1,0,0)                   R   N=          91
 -8.88178420E-16 -2.12053378E-16 -8.88178420E-16  4.42467361E-02  3.88476122E-01
 -8.88178420E-16  0.00000000E+00  0.00000000E+00  0.00000000E+00 -8.88178420E-16
  0.00000000E+00  0.00000000E+00  0.00000000E+00  0.00000000E+00 -8.88178420E-16
 -1.69841298E-18 -1.97174897E-16  2.01736752E-01  0.00000000E+00  0.00000000E+00
 -8.88178420E-16  1.06341252E-03  1.42508110E-01 -1.99479694E-16  0.00000000E+00
  0.00000000E+00  1.57711799E+00 -8.88178420E-16  0.00000000E+00  0.00000000E+00
  0.00000000E+00 -1.99479694E-16  0.00000000E+00  0.00000000E+00  0.00000000E+00
 -8.88178420E-16  0.00000000E+00  0.00000000E+00  0.00000000E+00  0.00000000E+00
 -1.99479694E-16  0.00000000E+00  0.00000000E+00  0.00000000E+00 -8.88178420E-16
 -2.10126706E-17 -1.93212958E-16  1.56597783E-01  0.00000000E+00  0.00000000E+00
 -7.61224835E-16  1.68031170E+00  0.00000000E+00  0.00000000E+00 -8.88178420E-16
  2.68369562E-04  4.18923190E-02 -5.70805737E-17  0.00000000E+00  0.00000000E+00
  1.20037577E+00 -6.12480934E-16  0.00000000E+00  0.00000000E+00  2.43667437E+00
 -8.88178420E-16  0.00000000E+00  0.00000000E+00  0.00000000E+00 -5.70805737E-17
  0.00000000E+00  0.00000000E+00  0.00000000E+00 -6.12480934E-16  0.00000000E+00
  0.00000000E+00  0.00000000E+00 -8.88178420E-16  0.00000000E+00  0.00000000E+00
  0.00000000E+00  0.00000000E+00 -5.70805737E-17  0.00000000E+00  0.00000000E+00
  0.00000000E+00 -6.12480934E-16  0.00000000E+00  0.00000000E+00  0.00000000E+00
 -8.88178420E-16
Multipole Matrix (0,1,0)                   R   N=          91
  0.00000000E+00  0.00000000E+00  0.00000000E+00  0.00000000E+00  0.00000000E+00
  0.00000000E+00  4.42467361E-02  3.88476122E-01  0.00000000E+00  0.00000000E+00
  0.00000000E+00  0.00000000E+00  0.00000000E+00  0.00000000E+00  0.00000000E+00
  0.00000000E+00  0.00000000E+00  0.00000000E+00  2.01736752E-01  0.00000000E+00
  0.00000000E+00  0.00000000E+00  0.00000000E+00  0.00000000E+00  0.00000000E+00
  0.00000000E+00  0.00000000E+00  0.00000000E+00  1.06341252E-03  1.42508110E-01
  0.00000000E+00  0.00000000E+00  0.00000000E+00  1.57711799E+00  0.00000000E+00
  0.00000000E+00  0.00000000E+00  0.00000000E+00  0.00000000E+00  0.00000000E+00
  0.00000000E+00  0.00000000E+00  0.00000000E+00  0.00000000E+00  0.00000000E+00
  0.00000000E+00  0.00000000E+00  0.00000000E+00  1.56597783E-01  0.00000000E+00
  0.00000000E+00  0.00000000E+00  1.68031170E+00  0.00000000E+00  0.00000000E+00
  0.00000000E+00  0.00000000E+00  0.00000000E+00  0.00000000E+00  0.00000000E+00
  0.00000000E+00  0.00000000E+00  0.00000000E+00  0.00000000E+00  0.00000000E+00
  0.00000000E+00  2.68369562E-04  4.18923190E-02  0.00000000E+00  0.00000000E+00
  0.00000000E+00  1.20037577E+00  0.00000000E+00  0.00000000E+00  0.00000000E+00
  2.43667437E+00  0.00000000E+00  0.00000000E+00  0.00000000E+00  0.00000000E+00
  0.00000000E+00  0.00000000E+00  0.00000000E+00  0.00000000E+00  0.00000000E+00
  0.00000000E+00  0.00000000E+00  0.00000000E+00  0.00000000E+00  0.00000000E+00
  0.00000000E+00
Multipole Matrix (0,0,1)                   R   N=          91
  0.00000000E+00  0.00000000E+00  0.00000000E+00  0.00000000E+00  0.00000000E+00
  0.00000000E+00  0.00000000E+00  0.00000000E+00  0.00000000E+00  0.00000000E+00
  4.42467361E-02  3.88476122E-01  0.00000000E+00  0.00000000E+00  0.00000000E+00
  0.00000000E+00  0.00000000E+00  0.00000000E+00  0.00000000E+00  2.01736752E-01
  0.00000000E+00  0.00000000E+00  0.00000000E+00  0.00000000E+00  0.00000000E+00
  0.00000000E+00  0.00000000E+00  0.00000000E+00  0.00000000E+00  0.00000000E+00
  0.00000000E+00  0.00000000E+00  0.00000000E+00  0.00000000E+00  0.00000000E+00
  0.00000000E+00  1.06341252E-03  1.42508110E-01  0.00000000E+00  0.00000000E+00
  0.00000000E+00  1.57711799E+00  0.00000000E+00  0.00000000E+00  0.00000000E+00
  0.00000000E+00  0.00000000E+00  0.00000000E+00  0.00000000E+00  1.56597783E-01
  0.00000000E+00  0.00000000E+00  0.00000000E+00  1.68031170E+00  0.00000000E+00
  0.00000000E+00  0.00000000E+00  0.00000000E+00  0.00000000E+00  0.00000000E+00
  0.00000000E+00  0.00000000E+00  0.00000000E+00  0.00000000E+00  0.00000000E+00
  0.00000000E+00  0.00000000E+00  0.00000000E+00  0.00000000E+00  0.00000000E+00
  0.00000000E+00  0.00000000E+00  0.00000000E+00  0.00000000E+00  0.00000000E+00
  0.00000000E+00  0.00000000E+00  0.00000000E+00  2.68369562E-04  4.18923190E-02
  0.00000000E+00  0.00000000E+00  0.00000000E+00  1.20037577E+00  0.00000000E+00
  0.00000000E+00  0.00000000E+00  2.43667437E+00  0.00000000E+00  0.00000000E+00
  0.00000000E+00
Multipole Matrix (2,0,0)                   R   N=          91
  7.52747132E-03  7.23013957E-03  1.82285851E-01 -7.85979923E-17 -6.90072216E-16
  3.47795621E-01  0.00000000E+00  0.00000000E+00  0.00000000E+00  1.15931874E-01
  0.00000000E+00  0.00000000E+00  0.00000000E+00  0.00000000E+00  1.15931874E-01
  1.48550133E-04  1.40626294E-01 -3.58356460E-16  0.00000000E+00  0.00000000E+00
  2.57289137E+00 -1.88900010E-18 -2.53145256E-16  2.87922267E-01  0.00000000E+00
  0.00000000E+00 -2.80152433E-15  5.67925164E+00  0.00000000E+00  0.00000000E+00
  0.00000000E+00  9.59740891E-02  0.00000000E+00  0.00000000E+00  0.00000000E+00
  1.89308388E+00  0.00000000E+00  0.00000000E+00  0.00000000E+00  0.00000000E+00
  9.59740891E-02  0.00000000E+00  0.00000000E+00  0.00000000E+00  1.89308388E+00
  6.53929233E-04  1.02077940E-01 -2.78173542E-16  0.00000000E+00  0.00000000E+00
  2.92492488E+00 -2.98483319E-15  0.00000000E+00  0.00000000E+00  5.93738199E+00
 -4.76720106E-19 -7.44157074E-17  9.48959544E-02  0.00000000E+00  0.00000000E+00
 -2.13229571E-15  6.16321466E+00  0.00000000E+00  0.00000000E+00 -4.32840319E-15
  1.78121460E+01  0.00000000E+00  0.00000000E+00  0.00000000E+00  3.16319848E-02
  0.00000000E+00  0.00000000E+00  0.00000000E+00  2.05440489E+00  0.00000000E+00
  0.00000000E+00  0.00000000E+00  5.93738199E+00  0.00000000E+00  0.00000000E+00
  0.00000000E+00  0.00000000E+00  3.16319848E-02  0.00000000E+00  0.00000000E+00
  0.00000000E+00  2.05440489E+00  0.00000000E+00  0.00000000E+00  0.00000000E+00
  5.93738199E+00
Multipole Matrix (1,1,0)                   R   N=          91
  0.00000000E+00  0.00000000E+00  0.00000000E+00  0.00000000E+00  0.00000000E+00
  0.00000000E+00 -3.92989961E-17 -3.45036108E-16  1.15931874E-01  0.00000000E+00
  0.00000000E+00  0.00000000E+00  0.00000000E+00  0.00000000E+00  0.00000000E+00
  0.00000000E+00  0.00000000E+00  0.00000000E+00 -1.79178230E-16  0.00000000E+00
  0.00000000E+00  0.00000000E+00  0.00000000E+00  0.00000000E+00  9.59740891E-02
  0.00000000E+00  0.00000000E+00  0.00000000E+00 -9.44500048E-19 -1.26572628E-16
  9.59740891E-02  0.00000000E+00  0.00000000E+00 -1.40076217E-15  1.89308388E+00
  0.00000000E+00  0.00000000E+00  0.00000000E+00  0.00000000E+00  0.00000000E+00
  0.00000000E+00  0.00000000E+00  0.00000000E+00  0.00000000E+00  0.00000000E+00
  0.00000000E+00  0.00000000E+00  0.00000000E+00 -1.39086771E-16  0.00000000E+00
  0.00000000E+00  0.00000000E+00 -1.49241659E-15  0.00000000E+00  0.00000000E+00
  0.00000000E+00  0.00000000E+00  0.00000000E+00  3.16319848E-02  0.00000000E+00
  0.00000000E+00  0.00000000E+00  2.05440489E+00  0.00000000E+00  0.00000000E+00
  0.00000000E+00 -2.38360053E-19 -3.72078537E-17  3.16319848E-02  0.00000000E+00
  0.00000000E+00 -1.06614786E-15  2.05440489E+00  0.00000000E+00  0.00000000E+00
 -2.16420159E-15  5.93738199E+00  0.00000000E+00  0.00000000E+00  0.00000000E+00
  0.00000000E+00  0.00000000E+00  0.00000000E+00  0.00000000E+00  0.00000000E+00
  0.00000000E+00  0.00000000E+00  0.00000000E+00  0.00000000E+00  0.00000000E+00
  0.00000000E+00
Multipole Matrix (0,2,0)                   R   N=          91
  7.52747132E-03  7.23013957E-03  1.82285851E-01  0.00000000E+00  0.00000000E+00
  1.15931874E-01  0.00000000E+00  0.00000000E+00  0.00000000E+00  3.47795621E-01
  0.00000000E+00  0.00000000E+00  0.00000000E+00  0.00000000E+00  1.15931874E-01
  1.48550133E-04  1.40626294E-01  0.00000000E+00  0.00000000E+00  0.00000000E+00
  2.57289137E+00  0.00000000E+00  0.00000000E+00  9.59740891E-02  0.00000000E+00
  0.00000000E+00  0.00000000E+00  1.89308388E+00  0.00000000E+00  0.00000000E+00
  0.00000000E+00  2.87922267E-01  0.00000000E+00  0.00000000E+00  0.00000000E+00
  5.67925164E+00  0.00000000E+00  0.00000000E+00  0.00000000E+00  0.00000000E+00
  9.59740891E-02  0.00000000E+00  0.00000000E+00  0.00000000E+00  1.89308388E+00
  6.53929233E-04  1.02077940E-01  0.00000000E+00  0.00000000E+00  0.00000000E+00
  2.92492488E+00  0.00000000E+00  0.00000000E+00  0.00000000E+00  5.93738199E+00
  0.00000000E+00  0.00000000E+00  3.16319848E-02  0.00000000E+00  0.00000000E+00
  0.00000000E+00  2.05440489E+00  0.00000000E+00  0.00000000E+00  0.00000000E+00
  5.93738199E+00  0.00000000E+00  0.00000000E+00  0.00000000E+00  9.48959544E-02
  0.00000000E+00  0.00000000E+00  0.00000000E+00  6.16321466E+00  0.00000000E+00
  0.00000000E+00  0.00000000E+00  1.78121460E+01  0.00000000E+00  0.00000000E+00
  0.00000000E+00  0.00000000E+00  3.16319848E-02  0.00000000E+00  0.00000000E+00
  0.00000000E+00  2.05440489E+00  0.00000000E+00  0.00000000E+00  0.00000000E+00
  5.93738199E+00
Multipole Matrix (1,0,1)                   R   N=          91
  0.00000000E+00  0.00000000E+00  0.00000000E+00  0.00000000E+00  0.00000000E+00
  0.00000000E+00  0.00000000E+00  0.00000000E+00  0.00000000E+00  0.00000000E+00
 -3.92989961E-17 -3.45036108E-16  1.15931874E-01  0.00000000E+00  0.00000000E+00
  0.00000000E+00  0.00000000E+00  0.00000000E+00  0.00000000E+00 -1.79178230E-16
  0.00000000E+00  0.00000000E+00  0.00000000E+00  0.00000000E+00  0.00000000E+00
  9.59740891E-02  0.00000000E+00  0.00000000E+00  0.00000000E+00  0.00000000E+00
  0.00000000E+00  0.00000000E+00  0.00000000E+00  0.00000000E+00  0.00000000E+00
  0.00000000E+00 -9.44500048E-19 -1.26572628E-16  9.59740891E-02  0.00000000E+00
  0.00000000E+00 -1.40076217E-15  1.89308388E+00  0.00000000E+00  0.00000000E+00
  0.00000000E+00  0.00000000E+00  0.00000000E+00  0.00000000E+00 -1.39086771E-16
  0.00000000E+00  0.00000000E+00  0.00000000E+00 -1.49241659E-15  0.00000000E+00
  0.00000000E+00  0.00000000E+00  0.00000000E+00  0.00000000E+00  3.16319848E-02
  0.00000000E+00  0.00000000E+00  0.00000000E+00  2.05440489E+00  0.00000000E+00
  0.00000000E+00  0.00000000E+00  0.00000000E+00  0.00000000E+00  0.00000000E+00
  0.00000000E+00  0.00000000E+00  0.00000000E+00  0.00000000E+00  0.00000000E+00
  0.00000000E+00  0.00000000E+00  0.00000000E+00 -2.38360053E-19 -3.72078537E-17
  3.16319848E-02  0.00000000E+00  0.00000000E+00 -1.06614786E-15  2.05440489E+00
  0.00000000E+00  0.00000000E+00 -2.16420159E-15  5.93738199E+00  0.00000000E+00
  0.00000000E+00
Multipole Matrix (0,1,1)                   R   N=          91
  0.00000000E+00  0.00000000E+00  0.00000000E+00  0.00000000E+00  0.00000000E+00
  0.00000000E+00  0.00000000E+00  0.00000000E+00  0.00000000E+00  0.00000000E+00
  0.00000000E+00  0.00000000E+00  0.00000000E+00  1.15931874E-01  0.00000000E+00
  0.00000000E+00  0.00000000E+00  0.00000000E+00  0.00000000E+00  0.00000000E+00
  0.00000000E+00  0.00000000E+00  0.00000000E+00  0.00000000E+00  0.00000000E+00
  0.00000000E+00  0.00000000E+00  0.00000000E+00  0.00000000E+00  0.00000000E+00
  0.00000000E+00  0.00000000E+00  9.59740891E-02  0.00000000E+00  0.00000000E+00
  0.00000000E+00  0.00000000E+00  0.00000000E+00  0.00000000E+00  9.59740891E-02
  0.00000000E+00  0.00000000E+00  0.00000000E+00  1.89308388E+00  0.00000000E+00
  0.00000000E+00  0.00000000E+00  0.00000000E+00  0.00000000E+00  0.00000000E+00
  0.00000000E+00  0.00000000E+00  0.00000000E+00  0.00000000E+00  0.00000000E+00
  0.00000000E+00  0.00000000E+00  0.00000000E+00  0.00000000E+00  0.00000000E+00
  0.00000000E+00  0.00000000E+00  0.00000000E+00  0.00000000E+00  0.00000000E+00
  0.00000000E+00  0.00000000E+00  0.00000000E+00  0.00000000E+00  0.00000000E+00
  3.16319848E-02  0.00000000E+00  0.00000000E+00  0.00000000E+00  2.05440489E+00
  0.00000000E+00  0.00000000E+00  0.00000000E+00  0.00000000E+00  0.00000000E+00
  0.00000000E+00  3.16319848E-02  0.00000000E+00  0.00000000E+00  0.00000000E+00
  2.05440489E+00  0.00000000E+00  0.00000000E+00  0.00000000E+00  5.93738199E+00
  0.00000000E+00
Multipole Matrix (0,0,2)                   R   N=          91
  7.52747132E-03  7.23013957E-03  1.82285851E-01  0.00000000E+00  0.00000000E+00
  1.15931874E-01  0.00000000E+00  0.00000000E+00  0.00000000E+00  1.15931874E-01
  0.00000000E+00  0.00000000E+00  0.00000000E+00  0.00000000E+00  3.47795621E-01
  1.48550133E-04  1.40626294E-01  0.00000000E+00  0.00000000E+00  0.00000000E+00
  2.57289137E+00  0.00000000E+00  0.00000000E+00  9.59740891E-02  0.00000000E+00
  0.00000000E+00  0.00000000E+00  1.89308388E+00  0.00000000E+00  0.00000000E+00
  0.00000000E+00  9.59740891E-02  0.00000000E+00  0.00000000E+00  0.00000000E+00
  1.89308388E+00  0.00000000E+00  0.00000000E+00  0.00000000E+00  0.00000000E+00
  2.87922267E-01  0.00000000E+00  0.00000000E+00  0.00000000E+00  5.67925164E+00
  6.53929233E-04  1.02077940E-01  0.00000000E+00  0.00000000E+00  0.00000000E+00
  2.92492488E+00  0.00000000E+00  0.00000000E+00  0.00000000E+00  5.93738199E+00
  0.00000000E+00  0.00000000E+00  3.16319848E-02  0.00000000E+00  0.00000000E+00
  0.00000000E+00  2.05440489E+00  0.00000000E+00  0.00000000E+00  0.00000000E+00
  5.93738199E+00  0.00000000E+00  0.00000000E+00  0.00000000E+00  3.16319848E-02
  0.00000000E+00  0.00000000E+00  0.00000000E+00  2.05440489E+00  0.00000000E+00
  0.00000000E+00  0.00000000E+00  5.93738199E+00  0.00000000E+00  0.00000000E+00
  0.00000000E+00  0.00000000E+00  9.48959544E-02  0.00000000E+00  0.00000000E+00
  0.00000000E+00  6.16321466E+00  0.00000000E+00  0.00000000E+00  0.00000000E+00
  1.78121460E+01
Number of independent functions            I               13
Alpha MO coefficients                      R   N=         169
 -9.97456138E-01 -1.03454636E-02 -2.95239515E-16 -1.00668062E-16 -9.04391222E-17
  2.73136963E-03 -7.72267482E-16 -2.87011050E-17  1.51547095E-16 -1.29012102E-03
  2.06777921E-16  2.49088212E-18 -2.62139965E-17  2.54710353E-01 -1.02684770E+00
  4.86064884E-16 -1.04391362E-15 -6.83727793E-17 -1.87094587E-02 -9.86322803E-16
  1.13024099E-16  3.65308914E-17  7.10373179E-03  7.19822561E-16  3.05711725E-17
 -2.41824454E-17  1.06548563E-17  2.24920300E-17 -2.30938315E-14 -2.33712103E-08
 -9.92858556E-01  1.57688596E-16 -6.87974559E-16 -7.73728532E-10 -3.33631503E-02
 -1.74018258E-16  6.91726068E-16  2.48848616E-10  1.08128981E-02  1.86846688E-16
 -8.98970148E-17 -9.92858556E-01  7.60802369E-07  4.16864893E-15 -2.06077082E-15
 -3.33631503E-02  2.51871519E-08  1.75904179E-16  2.21494847E-15  1.08128981E-02
 -8.10075517E-09  2.85352694E-16 -4.05486684E-16  3.43579071E-16 -7.60859829E-07
 -9.93140884E-01  2.33729759E-08  5.40952202E-16 -2.49099826E-08 -3.20204802E-02
  7.65213711E-10  2.05520464E-16  7.95009080E-09  1.01354957E-02 -2.44220177E-10
 -5.25361618E-02  2.57655448E-01  2.70960035E-16 -4.87627068E-16 -2.26874698E-17
 -6.74132553E-01 -4.60154824E-16  2.46237556E-15  1.40585945E-16 -3.89908327E-01
  1.47066576E-15 -2.82343134E-15 -5.39258910E-17  5.72020652E-17 -1.15222760E-16
  9.68453718E-08  1.75074824E-01 -2.97505746E-09  1.95392756E-15 -2.93863596E-07
 -5.31632189E-01  9.02739125E-09 -1.52910198E-15 -3.15008125E-07 -5.69198027E-01
  9.67694290E-09 -2.09235522E-18  1.58584748E-17  1.94061382E-15  2.83308183E-09
  1.66741319E-01  1.91573713E-17 -5.61713478E-15 -8.18596287E-09 -4.81380242E-01
 -8.39553038E-17 -7.38915168E-15 -1.04722591E-08 -6.16693868E-01  2.76483832E-17
 -1.08650618E-16  1.66741318E-01 -9.22237321E-08 -3.69094287E-16 -1.25711038E-16
 -4.81380241E-01  2.66473083E-07  1.14314173E-15 -2.94278809E-16 -6.16693870E-01
  3.40897597E-07  1.39844382E-15  4.44305887E-02 -7.64641093E-03 -1.61720852E-16
 -3.15710257E-15  7.21276438E-18  1.82827639E+00  1.90994550E-16  1.73085646E-14
 -1.40388078E-16 -1.90521498E+00 -4.23569360E-16 -1.53164528E-14  1.80851422E-16
  4.74407686E-16  4.04794030E-16  1.28619400E-07  2.31938657E-01 -3.95114611E-09
  2.21608083E-14 -7.33112234E-07 -1.32271382E+00  2.25209677E-08 -2.50053518E-14
  7.04047714E-07  1.27066390E+00 -2.16281143E-08  6.27714034E-18 -3.08580934E-19
 -2.83659877E-15 -4.06915422E-09 -2.39175191E-01  2.42940594E-16  1.59305975E-14
  2.28398357E-08  1.34178609E+00 -2.71723281E-16 -1.47459657E-14 -2.12543568E-08
 -1.24829789E+00 -1.58534089E-17  7.50098099E-18 -2.39175191E-01  1.32460864E-07
  7.15975320E-16 -1.53629850E-15  1.34178609E+00 -7.43492177E-07 -3.17911339E-15
  1.36920676E-15 -1.24829789E+00  6.91880961E-07  2.94092863E-15
Beta MO coefficients                       R   N=         169
  9.97457288E-01  1.03408506E-02  1.09920173E-16  2.00483317E-16  1.11419613E-16
 -2.72696161E-03  8.03025728E-16  1.51587158E-16 -1.06917572E-17  1.28944090E-03
 -3.15958883E-16 -2.06908197E-16 -3.05096351E-17 -2.54695074E-01  1.02683070E+00
 -5.61663756E-16  1.05857474E-15  8.07257171E-17  1.91014772E-02  8.77841451E-16
 -2.59927877E-16 -5.34585346E-17 -7.44636023E-03 -6.48319149E-16  1.79199529E-16
  3.10747644E-17  2.31781150E-18  4.48084767E-17 -1.27545001E-14 -1.71239320E-08
 -9.93227997E-01  9.86770684E-17 -2.56433296E-16 -5.48215988E-10 -3.18401096E-02
 -1.61005127E-16  4.81319272E-16  1.84129169E-10  1.06974363E-02  2.93122376E-18
 -2.77690011E-16 -9.93227997E-01  5.57429518E-07  2.11609159E-15 -2.40153618E-15
 -3.18401096E-02  1.78458851E-08  1.01311917E-16  3.04131732E-15  1.06974363E-02
 -5.99388709E-09  3.03476658E-16 -1.40860024E-16  2.15287204E-16 -5.57612612E-07
 -9.93572476E-01  1.71295570E-08 -1.22525834E-16 -1.70080604E-08 -3.02628364E-02
  5.22478468E-10  1.51464394E-15  5.67465122E-09  1.00936383E-02 -1.74322367E-10
 -5.14986352E-02  2.57465103E-01 -2.00863274E-16 -5.23710800E-16  1.61910874E-17
 -6.31403595E-01 -3.58375744E-16  2.65047202E-15  3.41429600E-18 -4.34138916E-01
  9.37306110E-16 -6.55867325E-15 -5.24837799E-17  1.19935820E-19  2.36940667E-17
 -1.71534914E-15 -2.56789954E-09 -1.51119549E-01  1.35037175E-16  4.22715565E-15
  6.81689469E-09  4.01145154E-01 -2.50444808E-16  9.09147307E-15  1.17167053E-08
  6.89494868E-01 -1.27462312E-16  2.38879080E-16  1.51119549E-01 -8.35914066E-08
 -5.37480727E-16  1.18648923E-15 -4.01145153E-01  2.21906582E-07  2.47011033E-15
 -7.37935615E-16 -6.89494870E-01  3.81407400E-07  6.91233889E-16  2.65756968E-16
 -9.72703794E-16  7.69091391E-08  1.39025864E-01 -2.36262254E-09  1.04106910E-14
 -1.87403681E-07 -3.38784127E-01  5.75697695E-09 -6.48240283E-15 -4.11329961E-07
 -7.43577614E-01  1.26359170E-08 -4.56892136E-02  1.38389174E-02 -5.50686556E-16
  4.82728885E-15 -6.64235417E-17 -1.84346520E+00  4.34293994E-15 -2.28306365E-14
  3.55084962E-16  1.89562418E+00 -3.42893582E-15  1.50435572E-14 -2.65541923E-16
 -8.67279535E-18 -2.76556764E-17  3.06184182E-15  4.21375808E-09  2.47864031E-01
 -5.08778710E-16 -1.65034118E-14 -2.32566665E-08 -1.36795421E+00  6.76013249E-16
  1.34760437E-14  2.05643586E-08  1.20961079E+00 -6.40083390E-17 -7.96334465E-17
  2.47864031E-01 -1.37168175E-07 -5.28731359E-16 -3.92668181E-15 -1.36795421E+00
  7.57061595E-07  2.96869177E-15  4.37124351E-15  1.20961079E+00 -6.69420302E-07
 -3.09707533E-15 -6.66044661E-16 -3.70536299E-16 -1.40297328E-07 -2.53497721E-01
  4.30988493E-09 -2.63505605E-14  7.66351008E-07  1.38475247E+00 -2.35420344E-08
  2.97756211E-14 -6.51464919E-07 -1.17714329E+00  2.00127732E-08
Alpha Orbital Energies                     R   N=          13
 -4.68717171E+01 -3.15958305E+00 -1.90341258E+00 -1.90341258E+00 -1.90125259E+00
 -2.44467486E-01 -1.06425402E-01 -5.76104718E-02 -5.76104715E-02  8.75757433E-02