Jobname.Temp
FOPT      R                             6-31G               
Number of atoms                            I                4
Charge                                     I                0
Multiplicity                               I                1
Number of electrons                        I               18
Number of alpha electrons                  I                9
Number of beta electrons                   I                9
Atomic numbers                             I   N=           4
           8           8           1           1
Current cartesian coordinates              R   N=          12
 -1.22593053E+00  2.13312405E-01 -1.28210773E-01  1.22593053E+00 -2.13312405E-01
 -1.28210773E-01 -1.93677331E+00 -1.08017260E+00  1.02568668E+00  1.93677331E+00
  1.08017260E+00  1.02568668E+00
Nuclear charges                            R   N=           4
  8.00000000E+00  8.00000000E+00  1.00000000E+00  1.00000000E+00
Number of basis functions                  I               22
Number of contracted shells                I               10
Number of primitive shells                 I               28
Highest angular momentum                   I                1
Largest degree of contraction              I                6
Shell types                                I   N=          10
           0          -1          -1           0          -1          -1
           0           0           0           0
Number of primitives per shell             I   N=          10
           6           3           1           6           3           1
           3           1           3           1
Shell to atom map                          I   N=          10
           1           1           1           2           2           2
           3           3           4           4
Primitive exponents                        R   N=          28
  5.48467170E+03  8.25234950E+02  1.88046960E+02  5.29645000E+01  1.68975700E+01
  5.79963530E+00  1.55396160E+01  3.59993360E+00  1.01376180E+00  2.70005800E-01
  5.48467170E+03  8.25234950E+02  1.88046960E+02  5.29645000E+01  1.68975700E+01
  5.79963530E+00  1.55396160E+01  3.59993360E+00  1.01376180E+00  2.70005800E-01
  1.87311370E+01  2.82539370E+00  6.40121700E-01  1.61277800E-01  1.87311370E+01
  2.82539370E+00  6.40121700E-01  1.61277800E-01
Contraction coefficients                   R   N=          28
  1.83109981E-03  1.39500985E-02  6.84450927E-02  2.32714275E-01  4.70192950E-01
  3.58520862E-01 -1.10777504E-01 -1.48026305E-01  1.13076704E+00  1.00000000E+00
  1.83109981E-03  1.39500985E-02  6.84450927E-02  2.32714275E-01  4.70192950E-01
  3.58520862E-01 -1.10777504E-01 -1.48026305E-01  1.13076704E+00  1.00000000E+00
  3.34945995E-02  2.34726947E-01  8.13757318E-01  1.00000000E+00  3.34945995E-02
  2.34726947E-01  8.13757318E-01  1.00000000E+00
P(S=P) Contraction coefficients            R   N=          28
  0.00000000E+00  0.00000000E+00  0.00000000E+00  0.00000000E+00  0.00000000E+00
  0.00000000E+00  7.08742995E-02  3.39752798E-01  7.27158595E-01  1.00000000E+00
  0.00000000E+00  0.00000000E+00  0.00000000E+00  0.00000000E+00  0.00000000E+00
  0.00000000E+00  7.08742995E-02  3.39752798E-01  7.27158595E-01  1.00000000E+00
  0.00000000E+00  0.00000000E+00  0.00000000E+00  0.00000000E+00  0.00000000E+00
  0.00000000E+00  0.00000000E+00  0.00000000E+00
Coordinates of each shell                  R   N=          30
 -1.22593053E+00  2.13312405E-01 -1.28210773E-01 -1.22593053E+00  2.13312405E-01
 -1.28210773E-01 -1.22593053E+00  2.13312405E-01 -1.28210773E-01  1.22593053E+00
 -2.13312405E-01 -1.28210773E-01  1.22593053E+00 -2.13312405E-01 -1.28210773E-01
  1.22593053E+00 -2.13312405E-01 -1.28210773E-01 -1.93677331E+00 -1.08017260E+00
  1.02568668E+00 -1.93677331E+00 -1.08017260E+00  1.02568668E+00  1.93677331E+00
  1.08017260E+00  1.02568668E+00  1.93677331E+00  1.08017260E+00  1.02568668E+00
Current cartesian coordinates              R   N=          12
 -1.22593053E+00  2.13312405E-01 -1.28210773E-01  1.22593053E+00 -2.13312405E-01
 -1.28210773E-01 -1.93677331E+00 -1.08017260E+00  1.02568668E+00  1.93677331E+00
  1.08017260E+00  1.02568668E+00
Orthonormalization Matrix                  R   N=         253
 -2.78124907E-03 -4.96453839E-02 -1.17843874E-03 -5.98290664E-03  2.12512511E-03
  5.98290664E-03 -3.80304095E-02 -2.55239120E-02  1.35733228E-03  7.53104924E-04
  7.05520270E-01 -1.50147969E-02  2.61654587E-03  1.76378097E-02  1.12583853E+00
 -4.86498892E-03  2.57428287E-02 -2.95234231E-01  7.46091193E-02  8.25357457E-03
  3.06026700E-01 -7.31502425E-03 -9.35994910E-02 -3.67361824E-03 -5.84688039E-03
 -2.49386885E-01  1.20888647E-01 -1.26144960E-01  2.57428287E-02 -9.10785099E-04
  2.05725380E-04  1.14025140E-03  5.48566438E-04  7.34118005E-02 -2.26227582E-03
 -1.48257932E-01  4.63740675E-04 -9.76781041E-03  1.36128369E-02  3.12330276E-02
  7.34118005E-02  9.76781041E-03 -3.33734562E-01  2.10945400E-02 -3.73636537E-04
  9.76781041E-03 -1.54263869E-02 -2.45868886E-03 -2.43336217E-02  9.73727876E-04
 -1.78525435E-02  3.45325266E-03  2.66449752E-02 -2.87983313E-03  4.62517684E-03
  2.49041616E-03 -1.07336624E-01  1.55394569E+00 -1.56656816E-02  1.76378097E-02
  1.35644336E-01  2.95751871E-01 -6.87833812E-03 -3.29390288E-01  8.76836227E-03
  7.53104924E-04  2.26227582E-03  1.39844184E-02 -1.03006885E+00  1.26144960E-01
 -1.12652682E-01  1.38041518E+00  2.61654587E-03 -2.64215965E-03  5.91798881E-02
 -1.03006885E+00  1.13388413E+00  2.87983313E-03  2.50930113E-02 -7.77665949E-02
 -1.31929133E-02  5.17828388E-02  5.65964127E-02  7.52242519E-03  8.91005528E-03
 -1.07336624E-01 -4.96453839E-02  3.95719086E-02 -2.74037451E-02  4.24037252E-02
  7.31502425E-03  5.79436661E-02  1.38380395E-01 -7.52242519E-03 -3.12330276E-02
  1.32455757E-02 -2.78124907E-03  3.83759147E-04  4.80420884E-03 -3.67361824E-03
  3.21269354E+00  1.50826235E-04  2.57428287E-02  5.48566438E-04  2.12512511E-03
  3.95719086E-02  2.45868886E-03  2.64215965E-03 -4.73102083E-02  1.58633896E-02
  2.03501861E-02  1.50826235E-04  1.04660274E+00 -3.30165135E-01  1.12583853E+00
 -1.88127272E-02 -1.48257932E-01  3.01073457E-01 -7.77665949E-02 -4.62180453E-01
  7.53104924E-04 -1.72837718E-01  1.21658577E-02 -1.62655084E-02 -2.85202394E-01
 -2.31699014E-01 -3.44020835E-01  7.05520270E-01 -9.35994910E-02 -1.35733228E-03
  3.06026700E-01  1.14025140E-03  2.50930113E-02 -3.13324244E-01 -6.25884272E-01
 -1.22667124E-02 -2.61654587E-03  3.83759147E-04  2.03501861E-02  1.02282120E+00
  4.63740675E-04  3.19840999E-02 -1.04660274E+00  1.62655084E-02  8.33930729E-02
 -1.50147969E-02 -1.72174745E-02 -1.35733228E-03 -3.73636537E-04 -7.07714092E-04
  8.91005528E-03 -1.50147969E-02  7.35899259E-01  1.39844184E-02 -6.87833812E-03
  4.62517684E-03 -7.31502425E-03  1.02584799E-02  1.12652682E-01  1.47867985E-02
  1.44084408E+00  1.02584799E-02  2.02398648E-02  1.22667124E-02  3.49488635E-03
  1.22098444E-02  1.89013586E-01 -2.11348984E-01 -3.32195851E-03 -4.62180453E-01
 -1.72837718E-01  1.36128369E-02  1.28613571E-02 -3.29390288E-01  4.80420884E-03
 -1.91294371E-04 -1.02584799E-02  1.13388413E+00  3.12330276E-02  2.55239120E-02
  2.03501861E-02 -3.33734562E-01  1.91294371E-04 -6.79102570E-02 -4.86498892E-03
  1.38380395E-01 -5.98290664E-03  1.17843874E-03  2.74037451E-02  3.73636537E-04
  3.83759147E-04  5.65964127E-02 -2.87983313E-03  7.53104924E-04  1.48691528E-02
 -1.07336624E-01  1.39844184E-02 -7.77665949E-02  7.31502425E-03  1.35733228E-03
  5.17828388E-02 -3.32195851E-03  3.19840999E-02 -1.76378097E-02  1.55394569E+00
 -1.03006885E+00  3.83759147E-04  4.80420884E-03  4.63740675E-04 -1.07336624E-01
  2.05725380E-04  1.58633896E-02 -1.50826235E-04 -5.84181131E-03  1.12411283E+00
 -1.31929133E-02 -3.44020835E-01  1.80511298E-02 -5.48566438E-04  1.14025140E-03
 -3.80304095E-02  1.47867985E-02  2.05725380E-04 -1.17843874E-03 -7.34118005E-02
  1.56656816E-02  7.52242519E-03 -1.21658577E-02 -6.87833812E-03 -1.22667124E-02
 -8.91005528E-03 -7.52242519E-03  7.07714092E-04  8.25357457E-03 -1.88127272E-02
  2.12512511E-03  1.56656816E-02 -1.26144960E-01  1.22098444E-02  1.89013586E-01
 -9.10785099E-04 -3.67361824E-03  2.12512511E-03  1.32455757E-02 -4.24037252E-02
  3.49488635E-03 -1.76378097E-02  1.12652682E-01 -3.12330276E-02 -4.96453839E-02
  7.07714092E-04 -5.48566438E-04  1.02282120E+00
Overlap Matrix                             R   N=         253
  1.00000000E+00  2.33689906E-01  1.00000000E+00 -1.05365039E-16  1.73076126E-16
  1.00000000E+00 -7.93246315E-18 -2.33491236E-17 -1.75360698E-32  1.00000000E+00
 -6.58340231E-18  2.16345158E-17  2.36715444E-32 -2.19200873E-33  1.00000000E+00
  1.67279760E-01  7.63640773E-01  1.63663542E-17  2.78613177E-17  0.00000000E+00
  1.00000000E+00 -2.19061437E-17 -3.37195016E-18  5.01520641E-01 -4.72083398E-34
  0.00000000E+00  0.00000000E+00  1.00000000E+00  1.68085651E-18  2.44229206E-17
 -4.72083398E-34  5.01520641E-01  0.00000000E+00  0.00000000E+00  0.00000000E+00
  1.00000000E+00 -1.68353612E-18  0.00000000E+00  0.00000000E+00  0.00000000E+00
  5.01520641E-01  0.00000000E+00  0.00000000E+00  0.00000000E+00  1.00000000E+00
  2.03736177E-09  1.69652704E-03  4.75329766E-03 -8.27075688E-04 -1.21673519E-18
  3.31066833E-02  8.16988983E-02 -1.42156409E-02 -2.14099642E-17  1.00000000E+00
  1.69652704E-03  5.32652283E-02  8.97317730E-02 -1.56133643E-02 -2.43358167E-17
  2.07963143E-01  4.12994690E-01 -7.18612407E-02 -1.06666545E-16  2.33689906E-01
  1.00000000E+00 -4.75329766E-03 -8.97317730E-02 -1.36720515E-01  2.81819073E-02
  4.37100765E-17 -1.65873837E-01 -2.09925637E-01  5.91811880E-02  8.76563929E-17
 -4.58594245E-17  3.46020715E-17  1.00000000E+00  8.27075688E-04  1.56133643E-02
  2.81819073E-02  2.03404355E-02 -7.60557073E-18  2.88621137E-02  5.91811880E-02
  1.19897804E-01 -1.52522473E-17  8.34453747E-18  4.69251464E-17  0.00000000E+00
  1.00000000E+00  1.21925753E-18  2.23456235E-17  4.05496657E-17 -7.05565798E-18
  2.52440986E-02  4.58115960E-17  9.43422714E-17 -1.64155928E-17  1.30195354E-01
  5.98166061E-18 -8.65397961E-18 -6.13547459E-33  4.18642866E-34  1.00000000E+00
  3.31066833E-02  2.07963143E-01  1.65873837E-01 -2.88621137E-02 -4.26694558E-17
  4.33372261E-01  5.52132755E-01 -9.60713194E-02 -1.50006175E-16  1.67279760E-01
  7.63640773E-01 -1.63663542E-17  2.04579428E-18 -2.99071120E-17  1.00000000E+00
 -8.16988983E-02 -4.12994690E-01 -2.09925637E-01  5.91811880E-02  8.68413854E-17
 -5.52132755E-01 -2.70065884E-01  1.22398517E-01  1.91113576E-16  2.19054414E-17
  3.37195016E-18  5.01520641E-01 -4.72083398E-34  0.00000000E+00  0.00000000E+00
  1.00000000E+00  1.42156409E-02  7.18612407E-02  5.91811880E-02  1.19897804E-01
 -1.51104357E-17  9.60713194E-02  1.22398517E-01  4.12074870E-01 -3.32538384E-17
  2.73809238E-18 -4.21493770E-19 -4.72083398E-34  5.01520641E-01  0.00000000E+00
  0.00000000E+00  0.00000000E+00  1.00000000E+00  2.10853502E-17  1.06257342E-16
  8.81619194E-17 -1.53402091E-17  1.30195354E-01  1.37505660E-16  1.75187445E-16
 -3.04826852E-17  4.33372261E-01  0.00000000E+00 -2.40014269E-17  0.00000000E+00
  0.00000000E+00  5.01520641E-01  0.00000000E+00  0.00000000E+00  0.00000000E+00
  1.00000000E+00  3.03879406E-02  2.26100106E-01 -1.01557318E-01 -1.84798766E-01
  1.64856048E-01  4.08284635E-01 -2.18934355E-01 -3.98383882E-01  3.55391942E-01
  1.88392014E-04  7.62696979E-03 -1.27457067E-02 -3.49344943E-03  4.65021048E-03
  7.68080500E-02 -1.81186811E-01 -4.96611900E-02  6.61051464E-02  1.00000000E+00
  6.64775807E-02  3.68228152E-01 -5.61588475E-02 -1.02189443E-01  9.11615806E-02
  6.67887453E-01 -1.84503679E-01 -3.35732105E-01  2.99501285E-01  1.71190253E-02
  1.12763713E-01 -7.47484235E-02 -2.04876704E-02  2.72716069E-02  2.80968417E-01
 -3.45337880E-01 -9.46530820E-02  1.25994883E-01  6.58292049E-01  1.00000000E+00
  1.88392014E-04  7.62696979E-03  1.27457067E-02  3.49344943E-03  4.65021048E-03
  7.68080500E-02  1.81186811E-01  4.96611900E-02  6.61051464E-02  3.03879406E-02
  2.26100106E-01  1.01557318E-01  1.84798766E-01  1.64856048E-01  4.08284635E-01
  2.18934355E-01  3.98383882E-01  3.55391942E-01  1.22994741E-03  5.00160137E-02
  1.00000000E+00  1.71190253E-02  1.12763713E-01  7.47484235E-02  2.04876704E-02
  2.72716069E-02  2.80968417E-01  3.45337880E-01  9.46530820E-02  1.25994883E-01
  6.64775807E-02  3.68228152E-01  5.61588475E-02  1.02189443E-01  9.11615806E-02
  6.67887453E-01  1.84503679E-01  3.35732105E-01  2.99501285E-01  5.00160137E-02
  2.04684711E-01  6.58292049E-01  1.00000000E+00
Kinetic Energy Matrix                      R   N=         253
  2.95401398E+01 -2.18540273E+00  1.71121096E+00  0.00000000E+00  0.00000000E+00
  4.25187706E+00  0.00000000E+00  0.00000000E+00  0.00000000E+00  4.25187706E+00
  0.00000000E+00  0.00000000E+00  0.00000000E+00  0.00000000E+00  4.25187706E+00
  1.31282499E-01  4.80047821E-01  0.00000000E+00  0.00000000E+00  0.00000000E+00
  4.05008700E-01  0.00000000E+00  0.00000000E+00  5.47243224E-01  0.00000000E+00
  0.00000000E+00  0.00000000E+00  6.75014500E-01  0.00000000E+00  0.00000000E+00
  0.00000000E+00  5.47243224E-01  0.00000000E+00  0.00000000E+00  0.00000000E+00
  6.75014500E-01  0.00000000E+00  0.00000000E+00  0.00000000E+00  0.00000000E+00
  5.47243224E-01  0.00000000E+00  0.00000000E+00  0.00000000E+00  6.75014500E-01
 -1.94577149E-07 -1.23038938E-02 -2.62188639E-02  4.56209278E-03  6.95382618E-18
 -2.07789912E-03  3.75915580E-02 -6.54094607E-03 -9.85047023E-18  2.95401398E+01
 -1.23038938E-02 -8.00150921E-02 -6.31364317E-02  1.09857643E-02  1.88898417E-17
  1.75289803E-02  2.08823955E-01 -3.63354514E-02 -5.60671640E-17 -2.18540273E+00
  1.71121096E+00  2.62188639E-02  6.31364317E-02 -2.31931125E-02 -1.24813963E-04
 -2.69515012E-18 -8.29125003E-02 -2.53005173E-01  5.53466879E-02  8.45795797E-17
  0.00000000E+00  0.00000000E+00  4.25187706E+00 -4.56209278E-03 -1.09857643E-02
 -1.24813963E-04 -2.38887148E-02  4.68957195E-19  1.44268081E-02  5.53466879E-02
  5.54481655E-02 -1.47168806E-17  0.00000000E+00  0.00000000E+00  0.00000000E+00
  4.25187706E+00 -6.95382618E-18 -1.56881181E-17 -6.21639460E-19  1.08165514E-19
 -2.39104325E-02  2.26848378E-17  8.73756951E-17 -1.52034058E-17  6.50785112E-02
  0.00000000E+00  0.00000000E+00  0.00000000E+00  0.00000000E+00  4.25187706E+00
 -2.07789912E-03  1.75289803E-02  8.29125003E-02 -1.44268081E-02 -2.14814019E-17
  7.76781369E-02  2.48043949E-01 -4.31597460E-02 -6.40146032E-17  1.31282499E-01
  4.80047821E-01  0.00000000E+00  0.00000000E+00  0.00000000E+00  4.05008700E-01
 -3.75915580E-02 -2.08823955E-01 -2.53005173E-01  5.53466879E-02  8.47854989E-17
 -2.48043949E-01 -3.11258650E-01  8.80354687E-02  1.33158815E-16  0.00000000E+00
  0.00000000E+00  5.47243224E-01  0.00000000E+00  0.00000000E+00  0.00000000E+00
  6.75014500E-01  6.54094607E-03  3.63354514E-02  5.53466879E-02  5.54481655E-02
 -1.47527106E-17  4.31597460E-02  8.80354687E-02  1.79372954E-01 -2.31696869E-17
  0.00000000E+00  0.00000000E+00  0.00000000E+00  5.47243224E-01  0.00000000E+00
  0.00000000E+00  0.00000000E+00  6.75014500E-01  9.85047023E-18  5.38933859E-17
  8.19893835E-17 -1.42661854E-17  6.50785112E-02  6.17739967E-17  1.26004049E-16
 -2.19247548E-17  1.94691161E-01  0.00000000E+00  0.00000000E+00  0.00000000E+00
  0.00000000E+00  5.47243224E-01  0.00000000E+00  0.00000000E+00  0.00000000E+00
  6.75014500E-01 -2.35984850E-02  2.08708510E-03 -7.06898726E-02 -1.28630821E-01
  1.14749515E-01  1.29071505E-01 -1.55703391E-01 -2.83325664E-01  2.52750331E-01
 -1.25572943E-03 -1.92712309E-02  2.42411743E-02  6.64422292E-03 -8.84427717E-03
 -2.54499844E-02 -9.10613479E-03 -2.49588526E-03  3.32232998E-03  1.39567828E+00
  1.98705086E-02  1.03240020E-01 -3.17142556E-02 -5.77088427E-02  5.14811431E-02
  1.54509854E-01 -7.99413135E-02 -1.45465205E-01  1.29767202E-01 -2.23137923E-03
 -5.20489630E-03 -1.67900330E-02 -4.60195208E-03  6.12576372E-03  1.58716071E-02
 -8.92440781E-02 -2.44607602E-02  3.25602776E-02  2.59735083E-01  2.41916700E-01
 -1.25572943E-03 -1.92712309E-02 -2.42411743E-02 -6.64422292E-03 -8.84427717E-03
 -2.54499844E-02  9.10613479E-03  2.49588526E-03  3.32232998E-03 -2.35984850E-02
  2.08708510E-03  7.06898726E-02  1.28630821E-01  1.14749515E-01  1.29071505E-01
  1.55703391E-01  2.83325664E-01  2.52750331E-01 -3.83187446E-03 -1.40351739E-02
  1.39567828E+00 -2.23137923E-03 -5.20489630E-03  1.67900330E-02  4.60195208E-03
  6.12576372E-03  1.58716071E-02  8.92440781E-02  2.44607602E-02  3.25602776E-02
  1.98705086E-02  1.03240020E-01  3.17142556E-02  5.77088427E-02  5.14811431E-02
  1.54509854E-01  7.99413135E-02  1.45465205E-01  1.29767202E-01 -1.40351739E-02
 -2.84834551E-03  2.59735083E-01  2.41916700E-01
Nuclear Attraction Matrix                  R   N=         253
 -6.55171498E+01 -5.86700406E+00 -1.45670180E+01 -9.01360366E-02 -6.15093298E-01
 -1.58348928E+01  2.89011126E-02  1.96977799E-01  2.22413009E-02 -1.55977918E+01
 -1.47556410E-02 -1.00489074E-01  1.45247697E-02  3.21979629E-02 -1.55828624E+01
 -5.99353440E+00 -1.01106930E+01 -5.98947462E-01  1.89309739E-01 -9.57919058E-02
 -1.06107329E+01 -1.24205832E-02 -4.08525260E-01 -5.96600575E+00  2.45461120E-02
  1.31799401E-02 -1.12119901E+00 -8.97177709E+00  3.98252115E-03  1.28793343E-01
  2.45461120E-02 -5.72130451E+00  2.99171351E-02  3.11063813E-01  1.22733893E-01
 -7.95661568E+00 -2.03330070E-03 -6.50649984E-02  1.31799401E-02  2.99171351E-02
 -5.70673369E+00 -1.47044396E-01  2.19630219E-02  7.01139115E-02 -7.91044990E+00
 -2.78293022E-08 -4.98281061E-02 -1.45714764E-01  2.53369735E-02 -2.32838263E-05
 -1.16440635E+00 -2.90881231E+00  5.05792871E-01 -3.96793988E-04 -6.55171498E+01
 -4.98281061E-02 -7.05072254E-01 -1.20096258E+00  2.09079450E-01 -2.74289721E-03
 -2.75999011E+00 -5.55511967E+00  9.57182431E-01 -1.49337460E-02 -5.86700406E+00
 -1.45670180E+01  1.45714764E-01  1.20096258E+00  1.84284668E+00 -3.74354265E-01
  4.63615083E-03  2.19182544E+00  2.88191000E+00 -7.60030125E-01  7.25697222E-03
  9.01360366E-02  6.15093298E-01 -1.58348928E+01 -2.53369735E-02 -2.09079450E-01
 -3.74354265E-01 -2.37269930E-01 -8.06692092E-04 -3.95557987E-01 -7.96160538E-01
 -1.34792198E+00 -6.26289132E-03 -2.89011126E-02 -1.96977799E-01  2.22413009E-02
 -1.55977918E+01 -2.32838263E-05 -2.74289721E-03 -4.63615083E-03  8.06692092E-04
 -3.02361814E-01 -2.15563103E-02 -4.76701473E-02  3.29444937E-03 -1.48389261E+00
 -1.47556410E-02 -1.00489074E-01 -1.45247697E-02 -3.21979629E-02 -1.55828624E+01
 -1.16440635E+00 -2.75999011E+00 -2.19182544E+00  3.95557987E-01 -2.15563103E-02
 -4.82392092E+00 -6.14585885E+00  1.06938189E+00 -5.66530523E-02 -5.99353440E+00
 -1.01106930E+01  5.98947462E-01 -1.89309739E-01 -9.57919058E-02 -1.06107329E+01
  2.90881231E+00  5.55511967E+00  2.88191000E+00 -7.96160538E-01  4.76701473E-02
  6.14585885E+00  3.12798533E+00 -1.21993527E+00  7.21781449E-02  1.24205832E-02
  4.08525260E-01 -5.96600575E+00  2.45461120E-02 -1.31799401E-02  1.12119901E+00
 -8.97177709E+00 -5.05792871E-01 -9.57182431E-01 -7.60030125E-01 -1.34792198E+00
 -3.29444937E-03 -1.06938189E+00 -1.21993527E+00 -3.40388773E+00 -1.25590260E-02
 -3.98252115E-03 -1.28793343E-01  2.45461120E-02 -5.72130451E+00 -2.99171351E-02
 -3.11063813E-01  1.22733893E-01 -7.95661568E+00 -3.96793988E-04 -1.49337460E-02
 -7.25697222E-03  6.26289132E-03 -1.48389261E+00 -5.66530523E-02 -7.21781449E-02
  1.25590260E-02 -3.61242130E+00 -2.03330070E-03 -6.50649984E-02 -1.31799401E-02
 -2.99171351E-02 -5.70673369E+00 -1.47044396E-01 -2.19630219E-02 -7.01139115E-02
 -7.91044990E+00 -1.04565761E+00 -2.73712904E+00  1.03750229E+00  2.08912593E+00
 -1.85245778E+00 -3.84232965E+00  1.66695269E+00  3.32941434E+00 -2.95431331E+00
 -5.62015643E-03 -9.02868033E-02  1.51519987E-01  3.39669532E-02 -4.95353970E-02
 -7.59748949E-01  1.77289033E+00  3.86042574E-01 -5.67700238E-01 -8.44237039E+00
 -2.35257371E+00 -4.66345708E+00  3.37629510E-01  1.21107227E+00 -1.04646754E+00
 -6.20772073E+00  6.30633787E-01  2.59727749E+00 -2.23894719E+00 -6.00599177E-01
 -1.45114048E+00  9.68949827E-01  1.89614771E-01 -3.10805133E-01 -2.80442728E+00
  3.42660659E+00  5.63559380E-01 -9.83680507E-01 -5.17243158E+00 -6.86022949E+00
 -5.62015643E-03 -9.02868033E-02 -1.51519987E-01 -3.39669532E-02 -4.95353970E-02
 -7.59748949E-01 -1.77289033E+00 -3.86042574E-01 -5.67700238E-01 -1.04565761E+00
 -2.73712904E+00 -1.03750229E+00 -2.08912593E+00 -1.85245778E+00 -3.84232965E+00
 -1.66695269E+00 -3.32941434E+00 -2.95431331E+00 -1.26246555E-02 -4.63570428E-01
 -8.44237039E+00 -6.00599177E-01 -1.45114048E+00 -9.68949827E-01 -1.89614771E-01
 -3.10805133E-01 -2.80442728E+00 -3.42660659E+00 -5.63559380E-01 -9.83680507E-01
 -2.35257371E+00 -4.66345708E+00 -3.37629510E-01 -1.21107227E+00 -1.04646754E+00
 -6.20772073E+00 -6.30633787E-01 -2.59727749E+00 -2.23894719E+00 -4.63570428E-01
 -1.76698302E+00 -5.17243158E+00 -6.86022949E+00
Core Hamiltonian Matrix                    R   N=         253
 -3.59770100E+01 -8.05240679E+00 -1.28558070E+01 -9.01360366E-02 -6.15093298E-01
 -1.15830157E+01  2.89011126E-02  1.96977799E-01  2.22413009E-02 -1.13459148E+01
 -1.47556410E-02 -1.00489074E-01  1.45247697E-02  3.21979629E-02 -1.13309853E+01
 -5.86225190E+00 -9.63064519E+00 -5.98947462E-01  1.89309739E-01 -9.57919058E-02
 -1.02057242E+01 -1.24205832E-02 -4.08525260E-01 -5.41876253E+00  2.45461120E-02
  1.31799401E-02 -1.12119901E+00 -8.29676259E+00  3.98252115E-03  1.28793343E-01
  2.45461120E-02 -5.17406129E+00  2.99171351E-02  3.11063813E-01  1.22733893E-01
 -7.28160118E+00 -2.03330070E-03 -6.50649984E-02  1.31799401E-02  2.99171351E-02
 -5.15949047E+00 -1.47044396E-01  2.19630219E-02  7.01139115E-02 -7.23543540E+00
 -2.22406451E-07 -6.21319999E-02 -1.71933628E-01  2.98990663E-02 -2.32838263E-05
 -1.16648425E+00 -2.87122075E+00  4.99251925E-01 -3.96793988E-04 -3.59770100E+01
 -6.21319999E-02 -7.85087346E-01 -1.26409901E+00  2.20065214E-01 -2.74289721E-03
 -2.74246113E+00 -5.34629572E+00  9.20846980E-01 -1.49337460E-02 -8.05240679E+00
 -1.28558070E+01  1.71933628E-01  1.26409901E+00  1.81965357E+00 -3.74479079E-01
  4.63615083E-03  2.10891294E+00  2.62890482E+00 -7.04683437E-01  7.25697222E-03
  9.01360366E-02  6.15093298E-01 -1.15830157E+01 -2.98990663E-02 -2.20065214E-01
 -3.74479079E-01 -2.61158645E-01 -8.06692092E-04 -3.81131179E-01 -7.40813850E-01
 -1.29247382E+00 -6.26289132E-03 -2.89011126E-02 -1.96977799E-01  2.22413009E-02
 -1.13459148E+01 -2.32838263E-05 -2.74289721E-03 -4.63615083E-03  8.06692092E-04
 -3.26272247E-01 -2.15563103E-02 -4.76701473E-02  3.29444937E-03 -1.41881410E+00
 -1.47556410E-02 -1.00489074E-01 -1.45247697E-02 -3.21979629E-02 -1.13309853E+01
 -1.16648425E+00 -2.74246113E+00 -2.10891294E+00  3.81131179E-01 -2.15563103E-02
 -4.74624278E+00 -5.89781490E+00  1.02622214E+00 -5.66530523E-02 -5.86225190E+00
 -9.63064519E+00  5.98947462E-01 -1.89309739E-01 -9.57919058E-02 -1.02057242E+01
  2.87122075E+00  5.34629572E+00  2.62890482E+00 -7.40813850E-01  4.76701473E-02
  5.89781490E+00  2.81672668E+00 -1.13189980E+00  7.21781449E-02  1.24205832E-02
  4.08525260E-01 -5.41876253E+00  2.45461120E-02 -1.31799401E-02  1.12119901E+00
 -8.29676259E+00 -4.99251925E-01 -9.20846980E-01 -7.04683437E-01 -1.29247382E+00
 -3.29444937E-03 -1.02622214E+00 -1.13189980E+00 -3.22451477E+00 -1.25590260E-02
 -3.98252115E-03 -1.28793343E-01  2.45461120E-02 -5.17406129E+00 -2.99171351E-02
 -3.11063813E-01  1.22733893E-01 -7.28160118E+00 -3.96793988E-04 -1.49337460E-02
 -7.25697222E-03  6.26289132E-03 -1.41881410E+00 -5.66530523E-02 -7.21781449E-02
  1.25590260E-02 -3.41773014E+00 -2.03330070E-03 -6.50649984E-02 -1.31799401E-02
 -2.99171351E-02 -5.15949047E+00 -1.47044396E-01 -2.19630219E-02 -7.01139115E-02
 -7.23543540E+00 -1.06925610E+00 -2.73504195E+00  9.66812419E-01  1.96049511E+00
 -1.73770827E+00 -3.71325815E+00  1.51124930E+00  3.04608868E+00 -2.70156298E+00
 -6.87588586E-03 -1.09558034E-01  1.75761161E-01  4.06111762E-02 -5.83796741E-02
 -7.85198933E-01  1.76378420E+00  3.83546688E-01 -5.64377908E-01 -7.04669211E+00
 -2.33270320E+00 -4.56021706E+00  3.05915254E-01  1.15336343E+00 -9.94986398E-01
 -6.05321087E+00  5.50692474E-01  2.45181229E+00 -2.10917999E+00 -6.02830556E-01
 -1.45634538E+00  9.52159794E-01  1.85012819E-01 -3.04679369E-01 -2.78855567E+00
  3.33736251E+00  5.39098620E-01 -9.51120229E-01 -4.91269650E+00 -6.61831279E+00
 -6.87588586E-03 -1.09558034E-01 -1.75761161E-01 -4.06111762E-02 -5.83796741E-02
 -7.85198933E-01 -1.76378420E+00 -3.83546688E-01 -5.64377908E-01 -1.06925610E+00
 -2.73504195E+00 -9.66812419E-01 -1.96049511E+00 -1.73770827E+00 -3.71325815E+00
 -1.51124930E+00 -3.04608868E+00 -2.70156298E+00 -1.64565299E-02 -4.77605602E-01
 -7.04669211E+00 -6.02830556E-01 -1.45634538E+00 -9.52159794E-01 -1.85012819E-01
 -3.04679369E-01 -2.78855567E+00 -3.33736251E+00 -5.39098620E-01 -9.51120229E-01
 -2.33270320E+00 -4.56021706E+00 -3.05915254E-01 -1.15336343E+00 -9.94986398E-01
 -6.05321087E+00 -5.50692474E-01 -2.45181229E+00 -2.10917999E+00 -4.77605602E-01
 -1.76983136E+00 -4.91269650E+00 -6.61831279E+00
Multipole Matrix (1,0,0)                   R   N=         253
 -1.22593053E+00 -2.86487590E-01 -1.22593053E+00  7.27077806E-02  4.96075284E-01
 -1.22593053E+00  0.00000000E+00  0.00000000E+00  0.00000000E+00 -1.22593053E+00
  0.00000000E+00  0.00000000E+00  0.00000000E+00  0.00000000E+00 -1.22593053E+00
 -2.05073364E-01 -9.36170537E-01  4.82583279E-01  0.00000000E+00  0.00000000E+00
 -1.22593053E+00  1.00190010E-02  3.29089724E-01 -6.14829465E-01  0.00000000E+00
  0.00000000E+00  9.62240114E-01 -1.22593053E+00  0.00000000E+00  0.00000000E+00
  0.00000000E+00 -6.14829465E-01  0.00000000E+00  0.00000000E+00  0.00000000E+00
 -1.22593053E+00  0.00000000E+00  0.00000000E+00  0.00000000E+00  0.00000000E+00
 -6.14829465E-01  0.00000000E+00  0.00000000E+00  0.00000000E+00 -1.22593053E+00
 -4.50949279E-25  1.59017149E-03  4.61094142E-03 -7.80105225E-04 -1.18924589E-18
  3.80274635E-02  9.59003822E-02 -1.63372079E-02 -2.46098157E-17  1.22593053E+00
 -1.59017149E-03 -1.11029255E-17  1.33591673E-02  8.86079936E-04  1.31349295E-18
  1.42451692E-01  3.68995465E-01 -4.88412439E-02 -7.24422783E-17  2.86487590E-01
  1.22593053E+00  4.61094142E-03  1.33591673E-02  3.70487526E-17 -5.38487927E-03
 -8.32640693E-18  1.35093145E-03  3.57094723E-02 -1.35004047E-04 -2.25626950E-19
  7.27077806E-02  4.96075284E-01  1.22593053E+00 -7.80105225E-04  8.86079936E-04
  5.38487927E-03 -5.12223424E-18 -8.53428531E-21  2.15635668E-02  5.54095630E-02
  8.95181051E-02 -1.14825354E-17  0.00000000E+00  0.00000000E+00  0.00000000E+00
  1.22593053E+00 -1.18924589E-18  1.31349295E-18  7.69078126E-18  8.53428531E-21
 -6.27725865E-18  3.41499605E-17  8.76873195E-17 -1.23175747E-17  9.72720240E-02
  0.00000000E+00  0.00000000E+00  0.00000000E+00  0.00000000E+00  1.22593053E+00
 -3.80274635E-02 -1.42451692E-01  1.35093145E-03  2.15635668E-02  3.41499605E-17
 -9.62279724E-17  4.17008173E-01  2.13321182E-17  3.33080618E-32  2.05073364E-01
  9.36170537E-01  4.82583279E-01  0.00000000E+00  0.00000000E+00  1.22593053E+00
  9.59003822E-02  3.68995465E-01 -3.57094723E-02 -5.54095630E-02 -8.76873195E-17
  4.17008173E-01  0.00000000E+00 -9.24436773E-02 -1.44341959E-16  1.00190010E-02
  3.29089724E-01  6.14829465E-01  0.00000000E+00  0.00000000E+00  9.62240114E-01
  1.22593053E+00 -1.63372079E-02 -4.88412439E-02  1.35004047E-04 -8.95181051E-02
  1.23175747E-17 -2.13321182E-17  9.24436773E-02 -9.14990017E-17  7.38383541E-33
  0.00000000E+00  0.00000000E+00  0.00000000E+00  6.14829465E-01  0.00000000E+00
  0.00000000E+00  0.00000000E+00  1.22593053E+00 -2.46098157E-17 -7.24422783E-17
  2.25626950E-19  1.14825354E-17 -9.72720240E-02 -3.05323900E-32  1.32313462E-16
  6.76851579E-33 -9.62279724E-17  0.00000000E+00  0.00000000E+00  0.00000000E+00
  0.00000000E+00  6.14829465E-01  0.00000000E+00  0.00000000E+00  0.00000000E+00
  1.22593053E+00 -3.88190754E-02 -3.45953685E-01  2.55202986E-01  2.79302155E-01
 -2.49161022E-01 -7.11196016E-01  5.97675303E-01  6.95623259E-01 -6.20554475E-01
  1.84717991E-04 -1.06444757E-04  2.87118758E-03 -7.15939560E-05  9.53003531E-05
 -8.01838842E-02  2.33149599E-01  5.24664560E-02 -6.98393002E-02 -1.93677331E+00
 -8.23960381E-02 -4.89355317E-01  3.18840369E-01  1.34492985E-01 -1.19979059E-01
 -9.96320459E-01  1.07992000E+00  5.00828041E-01 -4.46780750E-01  1.99498198E-02
  8.69415007E-02  1.19039077E-02 -1.68203185E-02  2.23899108E-02  1.21497989E-02
  3.23584185E-01 -4.09304336E-03  5.44834367E-03 -1.27496247E+00 -1.93677331E+00
 -1.84717991E-04  1.06444757E-04  2.87118758E-03 -7.15939560E-05 -9.53003531E-05
  8.01838842E-02  2.33149599E-01  5.24664560E-02  6.98393002E-02  3.88190754E-02
  3.45953685E-01  2.55202986E-01  2.79302155E-01  2.49161022E-01  7.11196016E-01
  5.97675303E-01  6.95623259E-01  6.20554475E-01 -2.82083527E-19  5.99887226E-02
  1.93677331E+00 -1.99498198E-02 -8.69415007E-02  1.19039077E-02 -1.68203185E-02
 -2.23899108E-02 -1.21497989E-02  3.23584185E-01 -4.09304336E-03 -5.44834367E-03
  8.23960381E-02  4.89355317E-01  3.18840369E-01  1.34492985E-01  1.19979059E-01
  9.96320459E-01  1.07992000E+00  5.00828041E-01  4.46780750E-01 -5.99887226E-02
 -4.54491358E-17  1.27496247E+00  1.93677331E+00
Multipole Matrix (0,1,0)                   R   N=         253
  2.13312401E-01  4.98489548E-02  2.13312401E-01  0.00000000E+00  0.00000000E+00
  2.13312401E-01  7.27077806E-02  4.96075284E-01  0.00000000E+00  2.13312401E-01
  0.00000000E+00  0.00000000E+00  0.00000000E+00  0.00000000E+00  2.13312401E-01
  3.56828471E-02  1.62894047E-01  0.00000000E+00  4.82583279E-01  0.00000000E+00
  2.13312401E-01  0.00000000E+00  0.00000000E+00  1.06980572E-01  0.00000000E+00
  0.00000000E+00  0.00000000E+00  2.13312401E-01  1.00190010E-02  3.29089724E-01
  0.00000000E+00  1.06980572E-01  0.00000000E+00  9.62240114E-01  0.00000000E+00
  2.13312401E-01  0.00000000E+00  0.00000000E+00  0.00000000E+00  0.00000000E+00
  1.06980572E-01  0.00000000E+00  0.00000000E+00  0.00000000E+00  2.13312401E-01
  3.95580895E-25 -2.76690472E-04 -7.80105225E-04  2.63326942E-04  2.06929260E-19