Jobname.Temp
SP        U                             6-31G               
Number of atoms                            I                1
Charge                                     I                0
Multiplicity                               I                2
Number of electrons                        I                9
Number of alpha electrons                  I                5
Number of beta electrons                   I                4
Atomic numbers                             I   N=           1
           9
Current cartesian coordinates              R   N=           3
  0.00000000E+00  0.00000000E+00  0.00000000E+00
Nuclear charges                            R   N=           1
  9.00000000E+00
Number of basis functions                  I                9
Number of contracted shells                I                3
Number of primitive shells                 I               10
Highest angular momentum                   I                1
Largest degree of contraction              I                6
Shell types                                I   N=           3
           0          -1          -1
Number of primitives per shell             I   N=           3
           6           3           1
Shell to atom map                          I   N=           3
           1           1           1
Primitive exponents                        R   N=          10
  7.00171309E+03  1.05136609E+03  2.39285690E+02  6.73974453E+01  2.15199573E+01
  7.40310130E+00  2.08479528E+01  4.80830834E+00  1.34406986E+00  3.58151390E-01
Contraction coefficients                   R   N=          10
  1.81962000E-03  1.39160800E-02  6.84053199E-02  2.33185760E-01  4.71267439E-01
  3.56618549E-01 -1.08506980E-01 -1.46451660E-01  1.12868858E+00  1.00000000E+00
P(S=P) Contraction coefficients            R   N=          10
  0.00000000E+00  0.00000000E+00  0.00000000E+00  0.00000000E+00  0.00000000E+00
  0.00000000E+00  7.16287200E-02  3.45912100E-01  7.22469960E-01  1.00000000E+00
Coordinates of each shell                  R   N=           9
  0.00000000E+00  0.00000000E+00  0.00000000E+00  0.00000000E+00  0.00000000E+00
  0.00000000E+00  0.00000000E+00  0.00000000E+00  0.00000000E+00
Orthonormalization Matrix                  R   N=          45
  1.02410827E+00 -1.71326897E-02  4.88882065E-17 -6.48876921E-17 -1.71326897E-02
 -6.50563123E-01 -4.71454548E-17  4.88882065E-17  1.40556661E+00  5.97215976E-17
 -7.03105832E-18 -3.76653456E-17 -6.48876921E-17  8.76549137E-17 -2.98451401E-01
 -1.22417375E-01  7.16993207E-18 -1.60319904E-17 -3.93785165E-17  9.14904068E-17
 -1.22417375E-01  3.15125786E-16  2.59836910E-17  1.11507949E+00 -6.41090801E-17
 -2.11179026E-16  6.21346652E-18 -6.50563123E-01 -3.93785165E-17 -3.14382861E-17
 -2.98451401E-01  6.26648612E-17  6.72120445E-18 -1.44653267E-17  3.15125786E-16
 -1.98422272E-17  6.72120445E-18  6.21346652E-18  2.00388079E-17 -6.41090801E-17
  1.11507949E+00  2.59836910E-17  2.00388079E-17 -8.07211867E-17 -2.98451401E-01
Overlap Matrix                             R   N=          45
  1.00000000E+00  2.44307988E-01  1.00000000E+00  0.00000000E+00  0.00000000E+00
  1.00000000E+00  0.00000000E+00  0.00000000E+00  0.00000000E+00  1.00000000E+00
  0.00000000E+00  0.00000000E+00  0.00000000E+00  0.00000000E+00  1.00000000E+00
  1.71632896E-01  7.63510641E-01  0.00000000E+00  0.00000000E+00  0.00000000E+00
  1.00000000E+00  0.00000000E+00  0.00000000E+00  4.99516928E-01  0.00000000E+00
  0.00000000E+00  0.00000000E+00  1.00000000E+00  0.00000000E+00  0.00000000E+00
  0.00000000E+00  4.99516928E-01  0.00000000E+00  0.00000000E+00  0.00000000E+00
  1.00000000E+00  0.00000000E+00  0.00000000E+00  0.00000000E+00  0.00000000E+00
  4.99516928E-01  0.00000000E+00  0.00000000E+00  0.00000000E+00  1.00000000E+00
Kinetic Energy Matrix                      R   N=          45
  3.76907037E+01 -2.79307886E+00  2.25973996E+00  0.00000000E+00  0.00000000E+00
  5.71317376E+00  0.00000000E+00  0.00000000E+00  0.00000000E+00  5.71317376E+00
  0.00000000E+00  0.00000000E+00  0.00000000E+00  0.00000000E+00  5.71317376E+00
  1.78470339E-01  6.36762506E-01  0.00000000E+00  0.00000000E+00  0.00000000E+00
  5.37227085E-01  0.00000000E+00  0.00000000E+00  7.23216925E-01  0.00000000E+00
  0.00000000E+00  0.00000000E+00  8.95378475E-01  0.00000000E+00  0.00000000E+00
  0.00000000E+00  7.23216925E-01  0.00000000E+00  0.00000000E+00  0.00000000E+00
  8.95378475E-01  0.00000000E+00  0.00000000E+00  0.00000000E+00  0.00000000E+00
  7.23216925E-01  0.00000000E+00  0.00000000E+00  0.00000000E+00  8.95378475E-01
Nuclear Attraction Matrix                  R   N=          45
 -7.81292669E+01 -6.67802144E+00 -1.36689440E+01  0.00000000E+00  0.00000000E+00
 -1.51748938E+01  0.00000000E+00  0.00000000E+00  0.00000000E+00 -1.51748938E+01
  0.00000000E+00  0.00000000E+00  0.00000000E+00  0.00000000E+00 -1.51748938E+01
 -6.94705950E+00 -9.11905690E+00  0.00000000E+00  0.00000000E+00  0.00000000E+00
 -8.59500012E+00  0.00000000E+00  0.00000000E+00 -4.88336081E+00  0.00000000E+00
  0.00000000E+00  0.00000000E+00 -5.73000008E+00  0.00000000E+00  0.00000000E+00
  0.00000000E+00 -4.88336081E+00  0.00000000E+00  0.00000000E+00  0.00000000E+00
 -5.73000008E+00  0.00000000E+00  0.00000000E+00  0.00000000E+00  0.00000000E+00
 -4.88336081E+00  0.00000000E+00  0.00000000E+00  0.00000000E+00 -5.73000008E+00
Core Hamiltonian Matrix                    R   N=          45
 -4.04385632E+01 -9.47110030E+00 -1.14092041E+01  0.00000000E+00  0.00000000E+00
 -9.46172006E+00  0.00000000E+00  0.00000000E+00  0.00000000E+00 -9.46172006E+00
  0.00000000E+00  0.00000000E+00  0.00000000E+00  0.00000000E+00 -9.46172006E+00
 -6.76858916E+00 -8.48229439E+00  0.00000000E+00  0.00000000E+00  0.00000000E+00
 -8.05777304E+00  0.00000000E+00  0.00000000E+00 -4.16014389E+00  0.00000000E+00
  0.00000000E+00  0.00000000E+00 -4.83462161E+00  0.00000000E+00  0.00000000E+00
  0.00000000E+00 -4.16014389E+00  0.00000000E+00  0.00000000E+00  0.00000000E+00
 -4.83462161E+00  0.00000000E+00  0.00000000E+00  0.00000000E+00  0.00000000E+00
 -4.16014389E+00  0.00000000E+00  0.00000000E+00  0.00000000E+00 -4.83462161E+00
Multipole Matrix (1,0,0)                   R   N=          45
  0.00000000E+00  0.00000000E+00  0.00000000E+00  6.61826154E-02  4.29475913E-01
  0.00000000E+00  0.00000000E+00  0.00000000E+00  0.00000000E+00  0.00000000E+00
  0.00000000E+00  0.00000000E+00  0.00000000E+00  0.00000000E+00  0.00000000E+00
  0.00000000E+00  0.00000000E+00  4.17337005E-01  0.00000000E+00  0.00000000E+00
  0.00000000E+00  9.23981518E-03  2.85521548E-01  0.00000000E+00  0.00000000E+00
  0.00000000E+00  8.35481204E-01  0.00000000E+00  0.00000000E+00  0.00000000E+00
  0.00000000E+00  0.00000000E+00  0.00000000E+00  0.00000000E+00  0.00000000E+00
  0.00000000E+00  0.00000000E+00  0.00000000E+00  0.00000000E+00  0.00000000E+00
  0.00000000E+00  0.00000000E+00  0.00000000E+00  0.00000000E+00  0.00000000E+00
Multipole Matrix (0,1,0)                   R   N=          45
  0.00000000E+00  0.00000000E+00  0.00000000E+00  0.00000000E+00  0.00000000E+00
  0.00000000E+00  6.61826154E-02  4.29475913E-01  0.00000000E+00  0.00000000E+00
  0.00000000E+00  0.00000000E+00  0.00000000E+00  0.00000000E+00  0.00000000E+00
  0.00000000E+00  0.00000000E+00  0.00000000E+00  4.17337005E-01  0.00000000E+00
  0.00000000E+00  0.00000000E+00  0.00000000E+00  0.00000000E+00  0.00000000E+00
  0.00000000E+00  0.00000000E+00  0.00000000E+00  9.23981518E-03  2.85521548E-01
  0.00000000E+00  0.00000000E+00  0.00000000E+00  8.35481204E-01  0.00000000E+00
  0.00000000E+00  0.00000000E+00  0.00000000E+00  0.00000000E+00  0.00000000E+00
  0.00000000E+00  0.00000000E+00  0.00000000E+00  0.00000000E+00  0.00000000E+00
Multipole Matrix (0,0,1)                   R   N=          45
  0.00000000E+00  0.00000000E+00  0.00000000E+00  0.00000000E+00  0.00000000E+00
  0.00000000E+00  0.00000000E+00  0.00000000E+00  0.00000000E+00  0.00000000E+00
  6.61826154E-02  4.29475913E-01  0.00000000E+00  0.00000000E+00  0.00000000E+00
  0.00000000E+00  0.00000000E+00  0.00000000E+00  0.00000000E+00  4.17337005E-01
  0.00000000E+00  0.00000000E+00  0.00000000E+00  0.00000000E+00  0.00000000E+00
  0.00000000E+00  0.00000000E+00  0.00000000E+00  0.00000000E+00  0.00000000E+00
  0.00000000E+00  0.00000000E+00  0.00000000E+00  0.00000000E+00  0.00000000E+00
  0.00000000E+00  9.23981518E-03  2.85521548E-01  0.00000000E+00  0.00000000E+00
  0.00000000E+00  8.35481204E-01  0.00000000E+00  0.00000000E+00  0.00000000E+00
Multipole Matrix (2,0,0)                   R   N=          45
  1.34245084E-02  1.38060488E-02  2.16635854E-01  0.00000000E+00  0.00000000E+00
  3.88422978E-01  0.00000000E+00  0.00000000E+00  0.00000000E+00  1.29474326E-01
  0.00000000E+00  0.00000000E+00  0.00000000E+00  0.00000000E+00  1.29474326E-01
  7.71969191E-03  2.38547886E-01  0.00000000E+00  0.00000000E+00  0.00000000E+00
  6.98028842E-01  0.00000000E+00  0.00000000E+00  4.00623506E-01  0.00000000E+00
  0.00000000E+00  0.00000000E+00  2.09408653E+00  0.00000000E+00  0.00000000E+00
  0.00000000E+00  1.33541169E-01  0.00000000E+00  0.00000000E+00  0.00000000E+00
  6.98028842E-01  0.00000000E+00  0.00000000E+00  0.00000000E+00  0.00000000E+00
  1.33541169E-01  0.00000000E+00  0.00000000E+00  0.00000000E+00  6.98028842E-01
Multipole Matrix (1,1,0)                   R   N=          45
  0.00000000E+00  0.00000000E+00  0.00000000E+00  0.00000000E+00  0.00000000E+00
  0.00000000E+00  0.00000000E+00  0.00000000E+00  1.29474326E-01  0.00000000E+00
  0.00000000E+00  0.00000000E+00  0.00000000E+00  0.00000000E+00  0.00000000E+00
  0.00000000E+00  0.00000000E+00  0.00000000E+00  0.00000000E+00  0.00000000E+00
  0.00000000E+00  0.00000000E+00  0.00000000E+00  0.00000000E+00  1.33541169E-01
  0.00000000E+00  0.00000000E+00  0.00000000E+00  0.00000000E+00  0.00000000E+00
  1.33541169E-01  0.00000000E+00  0.00000000E+00  0.00000000E+00  6.98028842E-01
  0.00000000E+00  0.00000000E+00  0.00000000E+00  0.00000000E+00  0.00000000E+00
  0.00000000E+00  0.00000000E+00  0.00000000E+00  0.00000000E+00  0.00000000E+00
Multipole Matrix (0,2,0)                   R   N=          45
  1.34245084E-02  1.38060488E-02  2.16635854E-01  0.00000000E+00  0.00000000E+00
  1.29474326E-01  0.00000000E+00  0.00000000E+00  0.00000000E+00  3.88422978E-01
  0.00000000E+00  0.00000000E+00  0.00000000E+00  0.00000000E+00  1.29474326E-01
  7.71969191E-03  2.38547886E-01  0.00000000E+00  0.00000000E+00  0.00000000E+00
  6.98028842E-01  0.00000000E+00  0.00000000E+00  1.33541169E-01  0.00000000E+00
  0.00000000E+00  0.00000000E+00  6.98028842E-01  0.00000000E+00  0.00000000E+00
  0.00000000E+00  4.00623506E-01  0.00000000E+00  0.00000000E+00  0.00000000E+00
  2.09408653E+00  0.00000000E+00  0.00000000E+00  0.00000000E+00  0.00000000E+00
  1.33541169E-01  0.00000000E+00  0.00000000E+00  0.00000000E+00  6.98028842E-01
Multipole Matrix (1,0,1)                   R   N=          45
  0.00000000E+00  0.00000000E+00  0.00000000E+00  0.00000000E+00  0.00000000E+00
  0.00000000E+00  0.00000000E+00  0.00000000E+00  0.00000000E+00  0.00000000E+00
  0.00000000E+00  0.00000000E+00  1.29474326E-01  0.00000000E+00  0.00000000E+00
  0.00000000E+00  0.00000000E+00  0.00000000E+00  0.00000000E+00  0.00000000E+00
  0.00000000E+00  0.00000000E+00  0.00000000E+00  0.00000000E+00  0.00000000E+00
  1.33541169E-01  0.00000000E+00  0.00000000E+00  0.00000000E+00  0.00000000E+00
  0.00000000E+00  0.00000000E+00  0.00000000E+00  0.00000000E+00  0.00000000E+00
  0.00000000E+00  0.00000000E+00  0.00000000E+00  1.33541169E-01  0.00000000E+00
  0.00000000E+00  0.00000000E+00  6.98028842E-01  0.00000000E+00  0.00000000E+00
Multipole Matrix (0,1,1)                   R   N=          45
  0.00000000E+00  0.00000000E+00  0.00000000E+00  0.00000000E+00  0.00000000E+00
  0.00000000E+00  0.00000000E+00  0.00000000E+00  0.00000000E+00  0.00000000E+00
  0.00000000E+00  0.00000000E+00  0.00000000E+00  1.29474326E-01  0.00000000E+00
  0.00000000E+00  0.00000000E+00  0.00000000E+00  0.00000000E+00  0.00000000E+00
  0.00000000E+00  0.00000000E+00  0.00000000E+00  0.00000000E+00  0.00000000E+00
  0.00000000E+00  0.00000000E+00  0.00000000E+00  0.00000000E+00  0.00000000E+00
  0.00000000E+00  0.00000000E+00  1.33541169E-01  0.00000000E+00  0.00000000E+00
  0.00000000E+00  0.00000000E+00  0.00000000E+00  0.00000000E+00  1.33541169E-01
  0.00000000E+00  0.00000000E+00  0.00000000E+00  6.98028842E-01  0.00000000E+00
Multipole Matrix (0,0,2)                   R   N=          45
  1.34245084E-02  1.38060488E-02  2.16635854E-01  0.00000000E+00  0.00000000E+00
  1.29474326E-01  0.00000000E+00  0.00000000E+00  0.00000000E+00  1.29474326E-01
  0.00000000E+00  0.00000000E+00  0.00000000E+00  0.00000000E+00  3.88422978E-01
  7.71969191E-03  2.38547886E-01  0.00000000E+00  0.00000000E+00  0.00000000E+00
  6.98028842E-01  0.00000000E+00  0.00000000E+00  1.33541169E-01  0.00000000E+00
  0.00000000E+00  0.00000000E+00  6.98028842E-01  0.00000000E+00  0.00000000E+00
  0.00000000E+00  1.33541169E-01  0.00000000E+00  0.00000000E+00  0.00000000E+00
  6.98028842E-01  0.00000000E+00  0.00000000E+00  0.00000000E+00  0.00000000E+00
  4.00623506E-01  0.00000000E+00  0.00000000E+00  0.00000000E+00  2.09408653E+00
Number of independent functions            I                9
Alpha MO coefficients                      R   N=          81
  9.94777508E-01  2.54202613E-02  6.39632570E-16 -7.06294794E-17  3.41050425E-17
 -6.92173472E-03 -1.26023176E-16 -1.36593076E-16 -3.48484770E-17  2.43605450E-01
 -5.44119753E-01  2.27345774E-17 -1.20338273E-16 -6.05038570E-17 -5.47757652E-01
 -6.49092894E-16 -2.17540253E-16  4.96326710E-17 -1.01771123E-18  1.60553997E-17
  2.82796167E-08 -3.80812584E-08 -7.07429503E-01 -1.74726886E-17  1.74623492E-08
 -2.35147541E-08 -4.36826952E-01  1.55084481E-16 -8.12348727E-16  6.89830252E-01
 -6.94047955E-15  2.75762187E-08  2.76251844E-16  4.57210417E-01 -4.01550876E-15
  1.82770252E-08  1.29958895E-16 -1.56451487E-16  7.57960318E-15  6.89830252E-01
 -3.71340645E-08 -6.56055916E-16  5.75511793E-15  4.57210417E-01 -2.46117948E-08
  3.10454054E-17 -2.67911060E-16  3.64623403E-08 -4.91000979E-08 -9.12150758E-01
  2.07271403E-16 -4.27115364E-08  5.75152497E-08  1.06848384E+00  7.17080466E-16
 -9.16027563E-15 -9.25532133E-01  7.49561478E-15 -3.69971775E-08  8.96717893E-15
  1.05992176E+00 -8.91272800E-15  4.23693205E-08  9.04147250E-16 -9.87234975E-15
 -9.93415233E-15 -9.25532133E-01  4.98203086E-08  9.27639306E-15  1.10156957E-14
  1.05992176E+00 -5.70544232E-08 -1.23090963E-01  1.47633224E+00 -5.56451294E-15
 -6.01273450E-15 -1.89196532E-16 -1.44881229E+00  6.57560195E-15  7.79692886E-15
  2.08552733E-16
Beta MO coefficients                       R   N=          81
 -9.95035077E-01 -2.42040105E-02 -6.11596132E-16  8.11928892E-17 -3.40522234E-17
  6.58277011E-03 -1.44656450E-16 -8.61310297E-17  3.48317187E-17 -2.41161076E-01
  5.24375335E-01  4.10962890E-16  4.52940469E-16  4.95919882E-17  5.67051334E-01
  2.04177259E-15  1.24203928E-15 -5.22065552E-17 -4.45161419E-16  2.16399850E-15
 -6.79985445E-01  3.26641654E-15 -2.72292873E-08  1.43607302E-16 -4.68414710E-01
  3.68136443E-15 -1.87493285E-08 -4.07402444E-16  1.54456930E-15 -6.25813014E-15
 -6.79985445E-01  3.66668870E-08  5.82717547E-16 -2.84214790E-15 -4.68414710E-01
  2.52477966E-08 -1.76794149E-18 -3.49527037E-18 -2.56499984E-08  3.45402205E-08
  6.40760267E-01  1.42713771E-17 -2.04927932E-08  2.75955417E-08  5.11717516E-01
  8.98758761E-16 -1.07107997E-14 -9.32788991E-01  9.26029273E-15 -3.75703676E-08
  9.91691543E-15  1.05501809E+00 -9.71473437E-15  4.24871330E-08  1.29637243E-15
 -1.41591791E-14 -1.02434218E-14 -9.32788991E-01  5.05921490E-08  1.29944274E-14
  1.24461598E-14  1.05501809E+00 -5.72130517E-08  4.57823524E-17 -4.28652643E-16
  3.86657995E-08 -5.20672548E-08 -9.60157168E-01  3.56886463E-16 -4.16742048E-08
  5.61183640E-08  1.03470802E+00  1.25792771E-01 -1.48348038E+00  5.79720499E-15
  8.14692680E-15  3.02447251E-16  1.44137186E+00 -7.61656013E-15 -1.05918959E-14
 -3.10261410E-16
Alpha Orbital Energies                     R   N=           9
 -2.47754497E+01 -1.20540903E+00 -5.35409747E-01 -4.47418851E-01 -4.47418851E-01
  1.07732372E+00  1.13377396E+00  1.13377396E+00  1.28303863E+00
Beta Orbital Energies                      R   N=           9
 -2.47446134E+01 -1.11577753E+00 -4.14177850E-01 -4.14177850E-01 -2.43535655E-01
  1.15271890E+00  1.15271890E+00  1.18961435E+00  1.32840000E+00
Total SCF Density                          R   N=          45
  2.09717937E+00 -2.09638114E-01  5.72267821E-01  1.56096696E-15 -1.79767904E-15
  9.38245982E-01  7.70802496E-17 -8.58980986E-16  1.39828199E-15  9.38245982E-01
  4.18313149E-17  4.92592364E-17  1.75325938E-08 -2.36093448E-08  5.00456502E-01
 -2.83623132E-01  5.95058210E-01  3.05046656E-16 -5.25026608E-16  7.31631746E-17
  6.21676904E-01 -3.52519022E-16  3.90741411E-17  6.33912762E-01  5.34386310E-16
  1.30093522E-08  1.57229298E-15  4.28453706E-01 -1.52449985E-16 -2.67550385E-17
  4.58592108E-16  6.33912762E-01 -1.75183595E-08  2.50928778E-16 -8.35682706E-18
  4.28453706E-01 -4.41997234E-17 -6.31243151E-17  1.30040166E-08 -1.75111747E-08
  3.09024274E-01 -4.86873965E-17  9.51088278E-09 -1.28073299E-08  1.90817786E-01
Spin SCF Density                           R   N=          45
  6.72436244E-04 -4.88795227E-03  2.11571693E-02 -6.33423095E-17  6.84692170E-16
  1.34855720E-02 -9.69324477E-17  7.70497071E-16 -2.67036285E-15  1.34855720E-02
 -2.01567836E-18 -4.39879068E-18 -1.94984443E-08  2.62565541E-08  5.00456502E-01
  2.97846222E-03  6.81401874E-04  4.23262894E-17 -2.47297649E-16  1.73690494E-17
 -2.15041933E-02 -7.26436715E-17 -8.19412943E-17 -3.11760815E-03 -2.70776104E-16
 -1.24998453E-08 -6.06846738E-16 -1.03709759E-02 -1.06460315E-16  1.13483973E-16
 -3.97659946E-16 -3.11760815E-03  1.68322589E-08 -6.10630375E-16  7.77845602E-16
 -1.03709759E-02 -6.25338924E-20 -6.68651764E-18 -1.24945243E-08  1.68250937E-08
  3.09024274E-01  1.00615947E-17 -8.05403974E-09  1.08455487E-08  1.90817786E-01
Pure Switching                             I                1
Dipole_Data                                R   N=           3
 -3.96551473E-15  1.94354517E-15  2.36448115E-17
Quadrupole_Data                            R   N=           6
 -4.70731088E+00 -8.28034837E-16 -4.70731088E+00 -3.33104367E-08  4.48557469E-08
 -3.87518878E+00
Octapole_Data                              R   N=          10
 -3.53764961E-15 -3.36749880E-17 -1.17921654E-15 -1.01024964E-16  3.12826059E-17
  0.00000000E+00  3.12826059E-17 -1.17921654E-15 -3.36749880E-17  9.38478177E-17
Hexadecapole_Data                          R   N=          15
 -2.48060190E+00 -1.40687485E-16 -8.26867300E-01 -1.40687485E-16 -2.48060190E+00
 -1.35166412E-08  6.06715789E-09 -4.50554706E-09  1.82014737E-08 -7.14302639E-01
 -4.68958285E-17 -7.14302639E-01 -1.35166412E-08  1.82014737E-08 -1.80521394E+00
Jobname.Temp
SP        U                             6-31G               
Number of atoms                            I                1
Charge                                     I                0
Multiplicity                               I                2
Number of electrons                        I                9
Number of alpha electrons                  I                5
Number of beta electrons                   I                4
Atomic numbers                             I   N=           1
           9
Current cartesian coordinates              R   N=           3
  0.00000000E+00  0.00000000E+00  0.00000000E+00
Nuclear charges                            R   N=           1
  9.00000000E+00
Number of basis functions                  I                9
Number of contracted shells                I                3
Number of primitive shells                 I               10
Highest angular momentum                   I                1
Largest degree of contraction              I                6
Shell types                                I   N=           3
           0          -1          -1
Number of primitives per shell             I   N=           3
           6           3           1
Shell to atom map                          I   N=           3
           1           1           1
Primitive exponents                        R   N=          10
  7.00171309E+03  1.05136609E+03  2.39285690E+02  6.73974453E+01  2.15199573E+01
  7.40310130E+00  2.08479528E+01  4.80830834E+00  1.34406986E+00  3.58151390E-01
Contraction coefficients                   R   N=          10
  1.81962000E-03  1.39160800E-02  6.84053199E-02  2.33185760E-01  4.71267439E-01
  3.56618549E-01 -1.08506980E-01 -1.46451660E-01  1.12868858E+00  1.00000000E+00
P(S=P) Contraction coefficients            R   N=          10
  0.00000000E+00  0.00000000E+00  0.00000000E+00  0.00000000E+00  0.00000000E+00
  0.00000000E+00  7.16287200E-02  3.45912100E-01  7.22469960E-01  1.00000000E+00
Coordinates of each shell                  R   N=           9
  0.00000000E+00  0.00000000E+00  0.00000000E+00  0.00000000E+00  0.00000000E+00
  0.00000000E+00  0.00000000E+00  0.00000000E+00  0.00000000E+00
Orthonormalization Matrix                  R   N=          45
  1.02410827E+00 -1.71326897E-02  4.88882065E-17 -6.48876921E-17 -1.71326897E-02
 -6.50563123E-01 -4.71454548E-17  4.88882065E-17  1.40556661E+00  5.97215976E-17
 -7.03105832E-18 -3.76653456E-17 -6.48876921E-17  8.76549137E-17 -2.98451401E-01
 -1.22417375E-01  7.16993207E-18 -1.60319904E-17 -3.93785165E-17  9.14904068E-17
 -1.22417375E-01  3.15125786E-16  2.59836910E-17  1.11507949E+00 -6.41090801E-17
 -2.11179026E-16  6.21346652E-18 -6.50563123E-01 -3.93785165E-17 -3.14382861E-17
 -2.98451401E-01  6.26648612E-17  6.72120445E-18 -1.44653267E-17  3.15125786E-16
 -1.98422272E-17  6.72120445E-18  6.21346652E-18  2.00388079E-17 -6.41090801E-17
  1.11507949E+00  2.59836910E-17  2.00388079E-17 -8.07211867E-17 -2.98451401E-01
Overlap Matrix                             R   N=          45
  1.00000000E+00  2.44307988E-01  1.00000000E+00  0.00000000E+00  0.00000000E+00
  1.00000000E+00  0.00000000E+00  0.00000000E+00  0.00000000E+00  1.00000000E+00
  0.00000000E+00  0.00000000E+00  0.00000000E+00  0.00000000E+00  1.00000000E+00
  1.71632896E-01  7.63510641E-01  0.00000000E+00  0.00000000E+00  0.00000000E+00
  1.00000000E+00  0.00000000E+00  0.00000000E+00  4.99516928E-01  0.00000000E+00
  0.00000000E+00  0.00000000E+00  1.00000000E+00  0.00000000E+00  0.00000000E+00
  0.00000000E+00  4.99516928E-01  0.00000000E+00  0.00000000E+00  0.00000000E+00
  1.00000000E+00  0.00000000E+00  0.00000000E+00  0.00000000E+00  0.00000000E+00
  4.99516928E-01  0.00000000E+00  0.00000000E+00  0.00000000E+00  1.00000000E+00
Kinetic Energy Matrix                      R   N=          45
  3.76907037E+01 -2.79307886E+00  2.25973996E+00  0.00000000E+00  0.00000000E+00
  5.71317376E+00  0.00000000E+00  0.00000000E+00  0.00000000E+00  5.71317376E+00
  0.00000000E+00  0.00000000E+00  0.00000000E+00  0.00000000E+00  5.71317376E+00
  1.78470339E-01  6.36762506E-01  0.00000000E+00  0.00000000E+00  0.00000000E+00
  5.37227085E-01  0.00000000E+00  0.00000000E+00  7.23216925E-01  0.00000000E+00
  0.00000000E+00  0.00000000E+00  8.95378475E-01  0.00000000E+00  0.00000000E+00
  0.00000000E+00  7.23216925E-01  0.00000000E+00  0.00000000E+00  0.00000000E+00
  8.95378475E-01  0.00000000E+00  0.00000000E+00  0.00000000E+00  0.00000000E+00
  7.23216925E-01  0.00000000E+00  0.00000000E+00  0.00000000E+00  8.95378475E-01
Nuclear Attraction Matrix                  R   N=          45
 -7.81292669E+01 -6.67802144E+00 -1.36689440E+01  0.00000000E+00  0.00000000E+00
 -1.51748938E+01  0.00000000E+00  0.00000000E+00  0.00000000E+00 -1.51748938E+01
  0.00000000E+00  0.00000000E+00  0.00000000E+00  0.00000000E+00 -1.51748938E+01
 -6.94705950E+00 -9.11905690E+00  0.00000000E+00  0.00000000E+00  0.00000000E+00
 -8.59500012E+00  0.00000000E+00  0.00000000E+00 -4.88336081E+00  0.00000000E+00
  0.00000000E+00  0.00000000E+00 -5.73000008E+00  0.00000000E+00  0.00000000E+00
  0.00000000E+00 -4.88336081E+00  0.00000000E+00  0.00000000E+00  0.00000000E+00
 -5.73000008E+00  0.00000000E+00  0.00000000E+00  0.00000000E+00  0.00000000E+00
 -4.88336081E+00  0.00000000E+00  0.00000000E+00  0.00000000E+00 -5.73000008E+00
Core Hamiltonian Matrix                    R   N=          45
 -4.04385632E+01 -9.47110030E+00 -1.14092041E+01  0.00000000E+00  0.00000000E+00
 -9.46172006E+00  0.00000000E+00  0.00000000E+00  0.00000000E+00 -9.46172006E+00
  0.00000000E+00  0.00000000E+00  0.00000000E+00  0.00000000E+00 -9.46172006E+00
 -6.76858916E+00 -8.48229439E+00  0.00000000E+00  0.00000000E+00  0.00000000E+00
 -8.05777304E+00  0.00000000E+00  0.00000000E+00 -4.16014389E+00  0.00000000E+00
  0.00000000E+00  0.00000000E+00 -4.83462161E+00  0.00000000E+00  0.00000000E+00
  0.00000000E+00 -4.16014389E+00  0.00000000E+00  0.00000000E+00  0.00000000E+00
 -4.83462161E+00  0.00000000E+00  0.00000000E+00  0.00000000E+00  0.00000000E+00
 -4.16014389E+00  0.00000000E+00  0.00000000E+00  0.00000000E+00 -4.83462161E+00
Multipole Matrix (1,0,0)                   R   N=          45
  0.00000000E+00  0.00000000E+00  0.00000000E+00  6.61826154E-02  4.29475913E-01
  0.00000000E+00  0.00000000E+00  0.00000000E+00  0.00000000E+00  0.00000000E+00
  0.00000000E+00  0.00000000E+00  0.00000000E+00  0.00000000E+00  0.00000000E+00
  0.00000000E+00  0.00000000E+00  4.17337005E-01  0.00000000E+00  0.00000000E+00
  0.00000000E+00  9.23981518E-03  2.85521548E-01  0.00000000E+00  0.00000000E+00
  0.00000000E+00  8.35481204E-01  0.00000000E+00  0.00000000E+00  0.00000000E+00
  0.00000000E+00  0.00000000E+00  0.00000000E+00  0.00000000E+00  0.00000000E+00
  0.00000000E+00  0.00000000E+00  0.00000000E+00  0.00000000E+00  0.00000000E+00
  0.00000000E+00  0.00000000E+00  0.00000000E+00  0.00000000E+00  0.00000000E+00
Multipole Matrix (0,1,0)                   R   N=          45
  0.00000000E+00  0.00000000E+00  0.00000000E+00  0.00000000E+00  0.00000000E+00
  0.00000000E+00  6.61826154E-02  4.29475913E-01  0.00000000E+00  0.00000000E+00
  0.00000000E+00  0.00000000E+00  0.00000000E+00  0.00000000E+00  0.00000000E+00
  0.00000000E+00  0.00000000E+00  0.00000000E+00  4.17337005E-01  0.00000000E+00
  0.00000000E+00  0.00000000E+00  0.00000000E+00  0.00000000E+00  0.00000000E+00
  0.00000000E+00  0.00000000E+00  0.00000000E+00  9.23981518E-03  2.85521548E-01
  0.00000000E+00  0.00000000E+00  0.00000000E+00  8.35481204E-01  0.00000000E+00
  0.00000000E+00  0.00000000E+00  0.00000000E+00  0.00000000E+00  0.00000000E+00
  0.00000000E+00  0.00000000E+00  0.00000000E+00  0.00000000E+00  0.00000000E+00
Multipole Matrix (0,0,1)                   R   N=          45
  0.00000000E+00  0.00000000E+00  0.00000000E+00  0.00000000E+00  0.00000000E+00
  0.00000000E+00  0.00000000E+00  0.00000000E+00  0.00000000E+00  0.00000000E+00
  6.61826154E-02  4.29475913E-01  0.00000000E+00  0.00000000E+00  0.00000000E+00
  0.00000000E+00  0.00000000E+00  0.00000000E+00  0.00000000E+00  4.17337005E-01
  0.00000000E+00  0.00000000E+00  0.00000000E+00  0.00000000E+00  0.00000000E+00
  0.00000000E+00  0.00000000E+00  0.00000000E+00  0.00000000E+00  0.00000000E+00
  0.00000000E+00  0.00000000E+00  0.00000000E+00  0.00000000E+00  0.00000000E+00
  0.00000000E+00  9.23981518E-03  2.85521548E-01  0.00000000E+00  0.00000000E+00
  0.00000000E+00  8.35481204E-01  0.00000000E+00  0.00000000E+00  0.00000000E+00
Multipole Matrix (2,0,0)                   R   N=          45
  1.34245084E-02  1.38060488E-02  2.16635854E-01  0.00000000E+00  0.00000000E+00
  3.88422978E-01  0.00000000E+00  0.00000000E+00  0.00000000E+00  1.29474326E-01
  0.00000000E+00  0.00000000E+00  0.00000000E+00  0.00000000E+00  1.29474326E-01
  7.71969191E-03  2.38547886E-01  0.00000000E+00  0.00000000E+00  0.00000000E+00
  6.98028842E-01  0.00000000E+00  0.00000000E+00  4.00623506E-01  0.00000000E+00
  0.00000000E+00  0.00000000E+00  2.09408653E+00  0.00000000E+00  0.00000000E+00
  0.00000000E+00  1.33541169E-01  0.00000000E+00  0.00000000E+00  0.00000000E+00
  6.98028842E-01  0.00000000E+00  0.00000000E+00  0.00000000E+00  0.00000000E+00
  1.33541169E-01  0.00000000E+00  0.00000000E+00  0.00000000E+00  6.98028842E-01
Multipole Matrix (1,1,0)                   R   N=          45
  0.00000000E+00  0.00000000E+00  0.00000000E+00  0.00000000E+00  0.00000000E+00
  0.00000000E+00  0.00000000E+00  0.00000000E+00  1.29474326E-01  0.00000000E+00
  0.00000000E+00  0.00000000E+00  0.00000000E+00  0.00000000E+00  0.00000000E+00
  0.00000000E+00  0.00000000E+00  0.00000000E+00  0.00000000E+00  0.00000000E+00
  0.00000000E+00  0.00000000E+00  0.00000000E+00  0.00000000E+00  1.33541169E-01
  0.00000000E+00  0.00000000E+00  0.00000000E+00  0.00000000E+00  0.00000000E+00
  1.33541169E-01  0.00000000E+00  0.00000000E+00  0.00000000E+00  6.98028842E-01
  0.00000000E+00  0.00000000E+00  0.00000000E+00  0.00000000E+00  0.00000000E+00
  0.00000000E+00  0.00000000E+00  0.00000000E+00  0.00000000E+00  0.00000000E+00
Multipole Matrix (0,2,0)                   R   N=          45
  1.34245084E-02  1.38060488E-02  2.16635854E-01  0.00000000E+00  0.00000000E+00
  1.29474326E-01  0.00000000E+00  0.00000000E+00  0.00000000E+00  3.88422978E-01
  0.00000000E+00  0.00000000E+00  0.00000000E+00  0.00000000E+00  1.29474326E-01
  7.71969191E-03  2.38547886E-01  0.00000000E+00  0.00000000E+00  0.00000000E+00
  6.98028842E-01  0.00000000E+00  0.00000000E+00  1.33541169E-01  0.00000000E+00
  0.00000000E+00  0.00000000E+00  6.98028842E-01  0.00000000E+00  0.00000000E+00
  0.00000000E+00  4.00623506E-01  0.00000000E+00  0.00000000E+00  0.00000000E+00
  2.09408653E+00  0.00000000E+00  0.00000000E+00  0.00000000E+00  0.00000000E+00
  1.33541169E-01  0.00000000E+00  0.00000000E+00  0.00000000E+00  6.98028842E-01
Multipole Matrix (1,0,1)                   R   N=          45
  0.00000000E+00  0.00000000E+00  0.00000000E+00  0.00000000E+00  0.00000000E+00