Jobname.Temp
SP        U                             6-31G               
Number of atoms                            I                1
Charge                                     I                0
Multiplicity                               I                4
Number of electrons                        I                9
Number of alpha electrons                  I                6
Number of beta electrons                   I                3
Atomic numbers                             I   N=           1
           9
Current cartesian coordinates              R   N=           3
  0.00000000E+00  0.00000000E+00  0.00000000E+00
Nuclear charges                            R   N=           1
  9.00000000E+00
Number of basis functions                  I                9
Number of contracted shells                I                3
Number of primitive shells                 I               10
Highest angular momentum                   I                1
Largest degree of contraction              I                6
Shell types                                I   N=           3
           0          -1          -1
Number of primitives per shell             I   N=           3
           6           3           1
Shell to atom map                          I   N=           3
           1           1           1
Primitive exponents                        R   N=          10
  7.00171309E+03  1.05136609E+03  2.39285690E+02  6.73974453E+01  2.15199573E+01
  7.40310130E+00  2.08479528E+01  4.80830834E+00  1.34406986E+00  3.58151390E-01
Contraction coefficients                   R   N=          10
  1.81962000E-03  1.39160800E-02  6.84053199E-02  2.33185760E-01  4.71267439E-01
  3.56618549E-01 -1.08506980E-01 -1.46451660E-01  1.12868858E+00  1.00000000E+00
P(S=P) Contraction coefficients            R   N=          10
  0.00000000E+00  0.00000000E+00  0.00000000E+00  0.00000000E+00  0.00000000E+00
  0.00000000E+00  7.16287200E-02  3.45912100E-01  7.22469960E-01  1.00000000E+00
Coordinates of each shell                  R   N=           9
  0.00000000E+00  0.00000000E+00  0.00000000E+00  0.00000000E+00  0.00000000E+00
  0.00000000E+00  0.00000000E+00  0.00000000E+00  0.00000000E+00
Orthonormalization Matrix                  R   N=          45
  1.02410827E+00 -1.71326897E-02  4.88882065E-17 -6.48876921E-17 -1.71326897E-02
 -6.50563123E-01 -4.71454548E-17  4.88882065E-17  1.40556661E+00  5.97215976E-17
 -7.03105832E-18 -3.76653456E-17 -6.48876921E-17  8.76549137E-17 -2.98451401E-01
 -1.22417375E-01  7.16993207E-18 -1.60319904E-17 -3.93785165E-17  9.14904068E-17
 -1.22417375E-01  3.15125786E-16  2.59836910E-17  1.11507949E+00 -6.41090801E-17
 -2.11179026E-16  6.21346652E-18 -6.50563123E-01 -3.93785165E-17 -3.14382861E-17
 -2.98451401E-01  6.26648612E-17  6.72120445E-18 -1.44653267E-17  3.15125786E-16
 -1.98422272E-17  6.72120445E-18  6.21346652E-18  2.00388079E-17 -6.41090801E-17
  1.11507949E+00  2.59836910E-17  2.00388079E-17 -8.07211867E-17 -2.98451401E-01
Overlap Matrix                             R   N=          45
  1.00000000E+00  2.44307988E-01  1.00000000E+00  0.00000000E+00  0.00000000E+00
  1.00000000E+00  0.00000000E+00  0.00000000E+00  0.00000000E+00  1.00000000E+00
  0.00000000E+00  0.00000000E+00  0.00000000E+00  0.00000000E+00  1.00000000E+00
  1.71632896E-01  7.63510641E-01  0.00000000E+00  0.00000000E+00  0.00000000E+00
  1.00000000E+00  0.00000000E+00  0.00000000E+00  4.99516928E-01  0.00000000E+00
  0.00000000E+00  0.00000000E+00  1.00000000E+00  0.00000000E+00  0.00000000E+00
  0.00000000E+00  4.99516928E-01  0.00000000E+00  0.00000000E+00  0.00000000E+00
  1.00000000E+00  0.00000000E+00  0.00000000E+00  0.00000000E+00  0.00000000E+00
  4.99516928E-01  0.00000000E+00  0.00000000E+00  0.00000000E+00  1.00000000E+00
Kinetic Energy Matrix                      R   N=          45
  3.76907037E+01 -2.79307886E+00  2.25973996E+00  0.00000000E+00  0.00000000E+00
  5.71317376E+00  0.00000000E+00  0.00000000E+00  0.00000000E+00  5.71317376E+00
  0.00000000E+00  0.00000000E+00  0.00000000E+00  0.00000000E+00  5.71317376E+00
  1.78470339E-01  6.36762506E-01  0.00000000E+00  0.00000000E+00  0.00000000E+00
  5.37227085E-01  0.00000000E+00  0.00000000E+00  7.23216925E-01  0.00000000E+00
  0.00000000E+00  0.00000000E+00  8.95378475E-01  0.00000000E+00  0.00000000E+00
  0.00000000E+00  7.23216925E-01  0.00000000E+00  0.00000000E+00  0.00000000E+00
  8.95378475E-01  0.00000000E+00  0.00000000E+00  0.00000000E+00  0.00000000E+00
  7.23216925E-01  0.00000000E+00  0.00000000E+00  0.00000000E+00  8.95378475E-01
Nuclear Attraction Matrix                  R   N=          45
 -7.81292669E+01 -6.67802144E+00 -1.36689440E+01  0.00000000E+00  0.00000000E+00
 -1.51748938E+01  0.00000000E+00  0.00000000E+00  0.00000000E+00 -1.51748938E+01
  0.00000000E+00  0.00000000E+00  0.00000000E+00  0.00000000E+00 -1.51748938E+01
 -6.94705950E+00 -9.11905690E+00  0.00000000E+00  0.00000000E+00  0.00000000E+00
 -8.59500012E+00  0.00000000E+00  0.00000000E+00 -4.88336081E+00  0.00000000E+00
  0.00000000E+00  0.00000000E+00 -5.73000008E+00  0.00000000E+00  0.00000000E+00
  0.00000000E+00 -4.88336081E+00  0.00000000E+00  0.00000000E+00  0.00000000E+00
 -5.73000008E+00  0.00000000E+00  0.00000000E+00  0.00000000E+00  0.00000000E+00
 -4.88336081E+00  0.00000000E+00  0.00000000E+00  0.00000000E+00 -5.73000008E+00
Core Hamiltonian Matrix                    R   N=          45
 -4.04385632E+01 -9.47110030E+00 -1.14092041E+01  0.00000000E+00  0.00000000E+00
 -9.46172006E+00  0.00000000E+00  0.00000000E+00  0.00000000E+00 -9.46172006E+00
  0.00000000E+00  0.00000000E+00  0.00000000E+00  0.00000000E+00 -9.46172006E+00
 -6.76858916E+00 -8.48229439E+00  0.00000000E+00  0.00000000E+00  0.00000000E+00
 -8.05777304E+00  0.00000000E+00  0.00000000E+00 -4.16014389E+00  0.00000000E+00
  0.00000000E+00  0.00000000E+00 -4.83462161E+00  0.00000000E+00  0.00000000E+00
  0.00000000E+00 -4.16014389E+00  0.00000000E+00  0.00000000E+00  0.00000000E+00
 -4.83462161E+00  0.00000000E+00  0.00000000E+00  0.00000000E+00  0.00000000E+00
 -4.16014389E+00  0.00000000E+00  0.00000000E+00  0.00000000E+00 -4.83462161E+00
Multipole Matrix (1,0,0)                   R   N=          45
  0.00000000E+00  0.00000000E+00  0.00000000E+00  6.61826154E-02  4.29475913E-01
  0.00000000E+00  0.00000000E+00  0.00000000E+00  0.00000000E+00  0.00000000E+00
  0.00000000E+00  0.00000000E+00  0.00000000E+00  0.00000000E+00  0.00000000E+00
  0.00000000E+00  0.00000000E+00  4.17337005E-01  0.00000000E+00  0.00000000E+00
  0.00000000E+00  9.23981518E-03  2.85521548E-01  0.00000000E+00  0.00000000E+00
  0.00000000E+00  8.35481204E-01  0.00000000E+00  0.00000000E+00  0.00000000E+00
  0.00000000E+00  0.00000000E+00  0.00000000E+00  0.00000000E+00  0.00000000E+00
  0.00000000E+00  0.00000000E+00  0.00000000E+00  0.00000000E+00  0.00000000E+00
  0.00000000E+00  0.00000000E+00  0.00000000E+00  0.00000000E+00  0.00000000E+00
Multipole Matrix (0,1,0)                   R   N=          45
  0.00000000E+00  0.00000000E+00  0.00000000E+00  0.00000000E+00  0.00000000E+00
  0.00000000E+00  6.61826154E-02  4.29475913E-01  0.00000000E+00  0.00000000E+00
  0.00000000E+00  0.00000000E+00  0.00000000E+00  0.00000000E+00  0.00000000E+00
  0.00000000E+00  0.00000000E+00  0.00000000E+00  4.17337005E-01  0.00000000E+00
  0.00000000E+00  0.00000000E+00  0.00000000E+00  0.00000000E+00  0.00000000E+00
  0.00000000E+00  0.00000000E+00  0.00000000E+00  9.23981518E-03  2.85521548E-01
  0.00000000E+00  0.00000000E+00  0.00000000E+00  8.35481204E-01  0.00000000E+00
  0.00000000E+00  0.00000000E+00  0.00000000E+00  0.00000000E+00  0.00000000E+00
  0.00000000E+00  0.00000000E+00  0.00000000E+00  0.00000000E+00  0.00000000E+00
Multipole Matrix (0,0,1)                   R   N=          45
  0.00000000E+00  0.00000000E+00  0.00000000E+00  0.00000000E+00  0.00000000E+00
  0.00000000E+00  0.00000000E+00  0.00000000E+00  0.00000000E+00  0.00000000E+00
  6.61826154E-02  4.29475913E-01  0.00000000E+00  0.00000000E+00  0.00000000E+00
  0.00000000E+00  0.00000000E+00  0.00000000E+00  0.00000000E+00  4.17337005E-01
  0.00000000E+00  0.00000000E+00  0.00000000E+00  0.00000000E+00  0.00000000E+00
  0.00000000E+00  0.00000000E+00  0.00000000E+00  0.00000000E+00  0.00000000E+00
  0.00000000E+00  0.00000000E+00  0.00000000E+00  0.00000000E+00  0.00000000E+00
  0.00000000E+00  9.23981518E-03  2.85521548E-01  0.00000000E+00  0.00000000E+00
  0.00000000E+00  8.35481204E-01  0.00000000E+00  0.00000000E+00  0.00000000E+00
Multipole Matrix (2,0,0)                   R   N=          45
  1.34245084E-02  1.38060488E-02  2.16635854E-01  0.00000000E+00  0.00000000E+00
  3.88422978E-01  0.00000000E+00  0.00000000E+00  0.00000000E+00  1.29474326E-01
  0.00000000E+00  0.00000000E+00  0.00000000E+00  0.00000000E+00  1.29474326E-01
  7.71969191E-03  2.38547886E-01  0.00000000E+00  0.00000000E+00  0.00000000E+00
  6.98028842E-01  0.00000000E+00  0.00000000E+00  4.00623506E-01  0.00000000E+00
  0.00000000E+00  0.00000000E+00  2.09408653E+00  0.00000000E+00  0.00000000E+00
  0.00000000E+00  1.33541169E-01  0.00000000E+00  0.00000000E+00  0.00000000E+00
  6.98028842E-01  0.00000000E+00  0.00000000E+00  0.00000000E+00  0.00000000E+00
  1.33541169E-01  0.00000000E+00  0.00000000E+00  0.00000000E+00  6.98028842E-01
Multipole Matrix (1,1,0)                   R   N=          45
  0.00000000E+00  0.00000000E+00  0.00000000E+00  0.00000000E+00  0.00000000E+00
  0.00000000E+00  0.00000000E+00  0.00000000E+00  1.29474326E-01  0.00000000E+00
  0.00000000E+00  0.00000000E+00  0.00000000E+00  0.00000000E+00  0.00000000E+00
  0.00000000E+00  0.00000000E+00  0.00000000E+00  0.00000000E+00  0.00000000E+00
  0.00000000E+00  0.00000000E+00  0.00000000E+00  0.00000000E+00  1.33541169E-01
  0.00000000E+00  0.00000000E+00  0.00000000E+00  0.00000000E+00  0.00000000E+00
  1.33541169E-01  0.00000000E+00  0.00000000E+00  0.00000000E+00  6.98028842E-01
  0.00000000E+00  0.00000000E+00  0.00000000E+00  0.00000000E+00  0.00000000E+00
  0.00000000E+00  0.00000000E+00  0.00000000E+00  0.00000000E+00  0.00000000E+00
Multipole Matrix (0,2,0)                   R   N=          45
  1.34245084E-02  1.38060488E-02  2.16635854E-01  0.00000000E+00  0.00000000E+00
  1.29474326E-01  0.00000000E+00  0.00000000E+00  0.00000000E+00  3.88422978E-01
  0.00000000E+00  0.00000000E+00  0.00000000E+00  0.00000000E+00  1.29474326E-01
  7.71969191E-03  2.38547886E-01  0.00000000E+00  0.00000000E+00  0.00000000E+00
  6.98028842E-01  0.00000000E+00  0.00000000E+00  1.33541169E-01  0.00000000E+00
  0.00000000E+00  0.00000000E+00  6.98028842E-01  0.00000000E+00  0.00000000E+00
  0.00000000E+00  4.00623506E-01  0.00000000E+00  0.00000000E+00  0.00000000E+00
  2.09408653E+00  0.00000000E+00  0.00000000E+00  0.00000000E+00  0.00000000E+00
  1.33541169E-01  0.00000000E+00  0.00000000E+00  0.00000000E+00  6.98028842E-01
Multipole Matrix (1,0,1)                   R   N=          45
  0.00000000E+00  0.00000000E+00  0.00000000E+00  0.00000000E+00  0.00000000E+00
  0.00000000E+00  0.00000000E+00  0.00000000E+00  0.00000000E+00  0.00000000E+00
  0.00000000E+00  0.00000000E+00  1.29474326E-01  0.00000000E+00  0.00000000E+00
  0.00000000E+00  0.00000000E+00  0.00000000E+00  0.00000000E+00  0.00000000E+00
  0.00000000E+00  0.00000000E+00  0.00000000E+00  0.00000000E+00  0.00000000E+00
  1.33541169E-01  0.00000000E+00  0.00000000E+00  0.00000000E+00  0.00000000E+00
  0.00000000E+00  0.00000000E+00  0.00000000E+00  0.00000000E+00  0.00000000E+00
  0.00000000E+00  0.00000000E+00  0.00000000E+00  1.33541169E-01  0.00000000E+00
  0.00000000E+00  0.00000000E+00  6.98028842E-01  0.00000000E+00  0.00000000E+00
Multipole Matrix (0,1,1)                   R   N=          45
  0.00000000E+00  0.00000000E+00  0.00000000E+00  0.00000000E+00  0.00000000E+00
  0.00000000E+00  0.00000000E+00  0.00000000E+00  0.00000000E+00  0.00000000E+00
  0.00000000E+00  0.00000000E+00  0.00000000E+00  1.29474326E-01  0.00000000E+00
  0.00000000E+00  0.00000000E+00  0.00000000E+00  0.00000000E+00  0.00000000E+00
  0.00000000E+00  0.00000000E+00  0.00000000E+00  0.00000000E+00  0.00000000E+00
  0.00000000E+00  0.00000000E+00  0.00000000E+00  0.00000000E+00  0.00000000E+00
  0.00000000E+00  0.00000000E+00  1.33541169E-01  0.00000000E+00  0.00000000E+00
  0.00000000E+00  0.00000000E+00  0.00000000E+00  0.00000000E+00  1.33541169E-01
  0.00000000E+00  0.00000000E+00  0.00000000E+00  6.98028842E-01  0.00000000E+00
Multipole Matrix (0,0,2)                   R   N=          45
  1.34245084E-02  1.38060488E-02  2.16635854E-01  0.00000000E+00  0.00000000E+00
  1.29474326E-01  0.00000000E+00  0.00000000E+00  0.00000000E+00  1.29474326E-01
  0.00000000E+00  0.00000000E+00  0.00000000E+00  0.00000000E+00  3.88422978E-01
  7.71969191E-03  2.38547886E-01  0.00000000E+00  0.00000000E+00  0.00000000E+00
  6.98028842E-01  0.00000000E+00  0.00000000E+00  1.33541169E-01  0.00000000E+00
  0.00000000E+00  0.00000000E+00  6.98028842E-01  0.00000000E+00  0.00000000E+00
  0.00000000E+00  1.33541169E-01  0.00000000E+00  0.00000000E+00  0.00000000E+00
  6.98028842E-01  0.00000000E+00  0.00000000E+00  0.00000000E+00  0.00000000E+00
  4.00623506E-01  0.00000000E+00  0.00000000E+00  0.00000000E+00  2.09408653E+00
Number of independent functions            I                9
Alpha MO coefficients                      R   N=          81
 -9.94451999E-01 -2.71322812E-02 -5.91568802E-16  9.41552383E-17 -3.38290653E-17
  7.60866883E-03  2.58973938E-16  1.08061018E-16  3.48195188E-17 -2.46991183E-01
  5.74046171E-01  1.27272146E-15 -4.98789920E-16  6.73124205E-17  5.18147460E-01
  8.72055301E-16 -4.75093671E-16 -5.50264738E-17 -6.12332110E-20  1.43928384E-17
  1.78327890E-09 -9.06436091E-06 -7.31557786E-01 -8.20481344E-18  1.19257424E-09
 -4.33801622E-06 -4.08111186E-01 -5.45266110E-16  1.40147337E-15 -7.31557776E-01
 -1.34559476E-04 -4.83920855E-10  7.16917509E-16 -4.08111178E-01 -6.45828478E-05
 -6.99210030E-11  1.06692686E-16 -7.85376495E-16  1.22654169E-04 -7.32663626E-01
  8.24795072E-06  5.57252328E-16  7.89900693E-05 -4.06772912E-01  5.32599638E-06
 -1.13847785E-16  1.43415167E-15  4.67540439E-04  8.92008560E-01  3.22479415E-05
 -1.44142048E-15 -5.73690766E-04 -1.08028282E+00 -3.95663836E-05 -3.17697145E-17
  2.89448383E-16 -2.13491536E-08 -3.28738348E-05  8.92915848E-01 -2.38706250E-16
  2.60604651E-08  3.92180609E-05 -1.07977811E+00  3.12766646E-16 -4.01229160E-15
 -8.92915726E-01  4.76667445E-04 -4.39536539E-09  4.15457044E-15  1.07977796E+00
 -5.68611573E-04  5.07337379E-09 -1.18902770E-01  1.46492464E+00 -2.34132756E-15
 -7.82558648E-16 -2.02733098E-16 -1.45966048E+00  3.33994075E-15  1.37150201E-15
  2.32580469E-16
Beta MO coefficients                       R   N=          81
  9.95142473E-01  2.37410206E-02  8.81788612E-16 -9.75346162E-17  3.36749979E-17
 -6.50626617E-03 -4.34258674E-16 -8.25369289E-17 -3.46537825E-17  2.41175537E-01
 -5.28639844E-01 -8.82839835E-16  5.41595015E-16 -5.24114891E-17 -5.62909255E-01
  1.06286479E-15  3.45468896E-16  5.53075310E-17 -1.35473148E-16  5.59152105E-16
 -2.00029659E-04  6.87175676E-01 -1.35616311E-05 -2.61867241E-17 -1.39282059E-04
  4.60245271E-01 -9.44716587E-06 -4.71024629E-18 -2.91413654E-18 -4.86158480E-09
  1.33387494E-05  6.53657058E-01  1.51061604E-17 -3.48700264E-09  9.69531161E-06
  4.97709920E-01  6.41631732E-18 -2.39821951E-16  6.53657028E-01  1.96669463E-04
  7.64384223E-10  1.45682965E-16  4.97709901E-01  1.43023637E-04  7.95233136E-10
  3.74914606E-17 -3.34109283E-16  9.86654769E-08  6.90430943E-05 -9.51424170E-01
  2.62563904E-16 -1.07366032E-07 -7.94217888E-05  1.04151828E+00  1.35435944E-15
 -1.41031013E-14  9.51423605E-01 -1.00419573E-03  2.05277721E-08  1.24963334E-14
 -1.04151767E+00  1.15531823E-03 -2.31017716E-08 -2.36778281E-16  2.86446783E-15
 -1.03968980E-03 -9.27504202E-01 -7.14708832E-05 -2.87292508E-15  1.12997946E-03
  1.05860684E+00  7.76887410E-05 -1.24912409E-01  1.48197357E+00  8.77794633E-15
  1.96206153E-15 -2.43704700E-16 -1.44299488E+00 -9.22533599E-15 -1.83819321E-15
  2.49355939E-16
Alpha Orbital Energies                     R   N=           9
 -2.48725593E+01 -1.35779897E+00 -6.57578562E-01 -6.57578560E-01 -5.78894819E-01
  9.28247244E-01  9.95582683E-01  9.95582696E-01  1.16190875E+00
Beta Orbital Energies                      R   N=           9
 -2.47788285E+01 -1.14803149E+00 -4.30953792E-01 -3.09656057E-01 -3.09656046E-01
  1.14524871E+00  1.14524873E+00  1.16083422E+00  1.30232328E+00
Total SCF Density                          R   N=          45
  2.09841360E+00 -2.18671892E-01  6.10288888E-01  1.33740234E-15  2.09493976E-16
  5.35177053E-01 -2.09621053E-16  1.66123200E-15  2.88168340E-04  1.80468569E+00
  3.79307006E-17  5.75675712E-17  1.78510352E-08  2.00343472E-05  5.35176795E-01
 -2.77778914E-01  5.94655920E-01  6.21110992E-16 -2.27409379E-15  6.98649426E-17
  5.85443843E-01 -4.26117580E-16 -6.51528591E-16  2.98556675E-01 -6.10406242E-04
 -1.66348916E-08 -4.33354793E-16  1.66555088E-01  2.83375465E-17 -1.43280877E-15
 -5.99784919E-04 -3.49324445E-01 -4.12601071E-05  8.79091045E-16  5.49870333E-04
  1.54430089E+00 -4.21505709E-17 -6.85330382E-17 -1.66325402E-08 -4.19883122E-05
  2.98556914E-01 -5.57458286E-17  2.39772231E-08  3.79987931E-05  1.66554741E-01
Spin SCF Density                           R   N=          45
  1.46524133E-03 -1.09332912E-02  5.02414462E-02  8.17629014E-18 -7.65560079E-16
  5.35176973E-01 -9.05506081E-17  1.47000910E-15  5.63079373E-04  8.60264868E-01
 -3.81507713E-18  5.70176815E-19  1.24255783E-08  3.86727932E-05  5.35176794E-01
  6.69029361E-03 -1.87670558E-04 -3.61342609E-16 -1.62963551E-15  1.12966048E-17
 -4.83744788E-02 -7.45307902E-17  4.92992010E-16  2.98556619E-01 -4.18983756E-04
 -2.04126754E-08  7.57579962E-16  1.66555049E-01  1.50674012E-16 -1.57832672E-15
 -4.15659510E-04 -9.81863155E-01 -2.87767540E-05  1.29105694E-15  6.78078151E-04
  1.12064947E+00  1.40123964E-19 -8.40151194E-18 -2.04119669E-08 -2.90045871E-05
  2.98556914E-01  6.06898534E-18  2.13455817E-08  4.66948199E-05  1.66554741E-01
Pure Switching                             I                1
Dipole_Data                                R   N=           3
  5.81167653E-16 -3.87110362E-16  5.15478887E-17
Quadrupole_Data                            R   N=           6
 -4.19907777E+00 -6.98141119E-04 -6.76281381E+00 -3.92897202E-08 -4.84241800E-05
 -4.19907720E+00
Octapole_Data                              R   N=          10
  9.42613654E-16 -3.64677412E-16  3.14204551E-16 -1.09403224E-15  3.74815895E-17
  0.00000000E+00  3.74815895E-17  3.14204551E-16 -3.64677412E-16  1.12444768E-16
Hexadecapole_Data                          R   N=          15
 -2.08737113E+00 -5.14870629E-04 -1.18394499E+00 -5.14870629E-04 -5.01629883E+00
 -2.43700605E-08 -1.18728318E-05 -8.12335351E-09 -3.56184953E-05 -6.95790260E-01
 -1.71623543E-04 -1.18394488E+00 -2.43700605E-08 -3.56184953E-05 -2.08737043E+00
Jobname.Temp
SP        U                             6-31G               
Number of atoms                            I                1
Charge                                     I                0
Multiplicity                               I                4
Number of electrons                        I                9
Number of alpha electrons                  I                6
Number of beta electrons                   I                3
Atomic numbers                             I   N=           1
           9
Current cartesian coordinates              R   N=           3
  0.00000000E+00  0.00000000E+00  0.00000000E+00
Nuclear charges                            R   N=           1
  9.00000000E+00
Number of basis functions                  I                9
Number of contracted shells                I                3
Number of primitive shells                 I               10
Highest angular momentum                   I                1
Largest degree of contraction              I                6
Shell types                                I   N=           3
           0          -1          -1
Number of primitives per shell             I   N=           3
           6           3           1
Shell to atom map                          I   N=           3
           1           1           1
Primitive exponents                        R   N=          10
  7.00171309E+03  1.05136609E+03  2.39285690E+02  6.73974453E+01  2.15199573E+01
  7.40310130E+00  2.08479528E+01  4.80830834E+00  1.34406986E+00  3.58151390E-01
Contraction coefficients                   R   N=          10
  1.81962000E-03  1.39160800E-02  6.84053199E-02  2.33185760E-01  4.71267439E-01
  3.56618549E-01 -1.08506980E-01 -1.46451660E-01  1.12868858E+00  1.00000000E+00
P(S=P) Contraction coefficients            R   N=          10
  0.00000000E+00  0.00000000E+00  0.00000000E+00  0.00000000E+00  0.00000000E+00
  0.00000000E+00  7.16287200E-02  3.45912100E-01  7.22469960E-01  1.00000000E+00
Coordinates of each shell                  R   N=           9
  0.00000000E+00  0.00000000E+00  0.00000000E+00  0.00000000E+00  0.00000000E+00
  0.00000000E+00  0.00000000E+00  0.00000000E+00  0.00000000E+00
Orthonormalization Matrix                  R   N=          45
  1.02410827E+00 -1.71326897E-02  4.88882065E-17 -6.48876921E-17 -1.71326897E-02
 -6.50563123E-01 -4.71454548E-17  4.88882065E-17  1.40556661E+00  5.97215976E-17
 -7.03105832E-18 -3.76653456E-17 -6.48876921E-17  8.76549137E-17 -2.98451401E-01
 -1.22417375E-01  7.16993207E-18 -1.60319904E-17 -3.93785165E-17  9.14904068E-17
 -1.22417375E-01  3.15125786E-16  2.59836910E-17  1.11507949E+00 -6.41090801E-17
 -2.11179026E-16  6.21346652E-18 -6.50563123E-01 -3.93785165E-17 -3.14382861E-17
 -2.98451401E-01  6.26648612E-17  6.72120445E-18 -1.44653267E-17  3.15125786E-16
 -1.98422272E-17  6.72120445E-18  6.21346652E-18  2.00388079E-17 -6.41090801E-17
  1.11507949E+00  2.59836910E-17  2.00388079E-17 -8.07211867E-17 -2.98451401E-01
Overlap Matrix                             R   N=          45
  1.00000000E+00  2.44307988E-01  1.00000000E+00  0.00000000E+00  0.00000000E+00
  1.00000000E+00  0.00000000E+00  0.00000000E+00  0.00000000E+00  1.00000000E+00
  0.00000000E+00  0.00000000E+00  0.00000000E+00  0.00000000E+00  1.00000000E+00
  1.71632896E-01  7.63510641E-01  0.00000000E+00  0.00000000E+00  0.00000000E+00
  1.00000000E+00  0.00000000E+00  0.00000000E+00  4.99516928E-01  0.00000000E+00
  0.00000000E+00  0.00000000E+00  1.00000000E+00  0.00000000E+00  0.00000000E+00
  0.00000000E+00  4.99516928E-01  0.00000000E+00  0.00000000E+00  0.00000000E+00
  1.00000000E+00  0.00000000E+00  0.00000000E+00  0.00000000E+00  0.00000000E+00
  4.99516928E-01  0.00000000E+00  0.00000000E+00  0.00000000E+00  1.00000000E+00
Kinetic Energy Matrix                      R   N=          45
  3.76907037E+01 -2.79307886E+00  2.25973996E+00  0.00000000E+00  0.00000000E+00
  5.71317376E+00  0.00000000E+00  0.00000000E+00  0.00000000E+00  5.71317376E+00
  0.00000000E+00  0.00000000E+00  0.00000000E+00  0.00000000E+00  5.71317376E+00
  1.78470339E-01  6.36762506E-01  0.00000000E+00  0.00000000E+00  0.00000000E+00
  5.37227085E-01  0.00000000E+00  0.00000000E+00  7.23216925E-01  0.00000000E+00
  0.00000000E+00  0.00000000E+00  8.95378475E-01  0.00000000E+00  0.00000000E+00
  0.00000000E+00  7.23216925E-01  0.00000000E+00  0.00000000E+00  0.00000000E+00
  8.95378475E-01  0.00000000E+00  0.00000000E+00  0.00000000E+00  0.00000000E+00
  7.23216925E-01  0.00000000E+00  0.00000000E+00  0.00000000E+00  8.95378475E-01
Nuclear Attraction Matrix                  R   N=          45
 -7.81292669E+01 -6.67802144E+00 -1.36689440E+01  0.00000000E+00  0.00000000E+00
 -1.51748938E+01  0.00000000E+00  0.00000000E+00  0.00000000E+00 -1.51748938E+01
  0.00000000E+00  0.00000000E+00  0.00000000E+00  0.00000000E+00 -1.51748938E+01
 -6.94705950E+00 -9.11905690E+00  0.00000000E+00  0.00000000E+00  0.00000000E+00
 -8.59500012E+00  0.00000000E+00  0.00000000E+00 -4.88336081E+00  0.00000000E+00
  0.00000000E+00  0.00000000E+00 -5.73000008E+00  0.00000000E+00  0.00000000E+00
  0.00000000E+00 -4.88336081E+00  0.00000000E+00  0.00000000E+00  0.00000000E+00
 -5.73000008E+00  0.00000000E+00  0.00000000E+00  0.00000000E+00  0.00000000E+00
 -4.88336081E+00  0.00000000E+00  0.00000000E+00  0.00000000E+00 -5.73000008E+00
Core Hamiltonian Matrix                    R   N=          45
 -4.04385632E+01 -9.47110030E+00 -1.14092041E+01  0.00000000E+00  0.00000000E+00
 -9.46172006E+00  0.00000000E+00  0.00000000E+00  0.00000000E+00 -9.46172006E+00
  0.00000000E+00  0.00000000E+00  0.00000000E+00  0.00000000E+00 -9.46172006E+00
 -6.76858916E+00 -8.48229439E+00  0.00000000E+00  0.00000000E+00  0.00000000E+00
 -8.05777304E+00  0.00000000E+00  0.00000000E+00 -4.16014389E+00  0.00000000E+00
  0.00000000E+00  0.00000000E+00 -4.83462161E+00  0.00000000E+00  0.00000000E+00
  0.00000000E+00 -4.16014389E+00  0.00000000E+00  0.00000000E+00  0.00000000E+00
 -4.83462161E+00  0.00000000E+00  0.00000000E+00  0.00000000E+00  0.00000000E+00
 -4.16014389E+00  0.00000000E+00  0.00000000E+00  0.00000000E+00 -4.83462161E+00
Multipole Matrix (1,0,0)                   R   N=          45
  0.00000000E+00  0.00000000E+00  0.00000000E+00  6.61826154E-02  4.29475913E-01
  0.00000000E+00  0.00000000E+00  0.00000000E+00  0.00000000E+00  0.00000000E+00
  0.00000000E+00  0.00000000E+00  0.00000000E+00  0.00000000E+00  0.00000000E+00
  0.00000000E+00  0.00000000E+00  4.17337005E-01  0.00000000E+00  0.00000000E+00
  0.00000000E+00  9.23981518E-03  2.85521548E-01  0.00000000E+00  0.00000000E+00
  0.00000000E+00  8.35481204E-01  0.00000000E+00  0.00000000E+00  0.00000000E+00
  0.00000000E+00  0.00000000E+00  0.00000000E+00  0.00000000E+00  0.00000000E+00
  0.00000000E+00  0.00000000E+00  0.00000000E+00  0.00000000E+00  0.00000000E+00
  0.00000000E+00  0.00000000E+00  0.00000000E+00  0.00000000E+00  0.00000000E+00
Multipole Matrix (0,1,0)                   R   N=          45
  0.00000000E+00  0.00000000E+00  0.00000000E+00  0.00000000E+00  0.00000000E+00
  0.00000000E+00  6.61826154E-02  4.29475913E-01  0.00000000E+00  0.00000000E+00
  0.00000000E+00  0.00000000E+00  0.00000000E+00  0.00000000E+00  0.00000000E+00
  0.00000000E+00  0.00000000E+00  0.00000000E+00  4.17337005E-01  0.00000000E+00
  0.00000000E+00  0.00000000E+00  0.00000000E+00  0.00000000E+00  0.00000000E+00
  0.00000000E+00  0.00000000E+00  0.00000000E+00  9.23981518E-03  2.85521548E-01
  0.00000000E+00  0.00000000E+00  0.00000000E+00  8.35481204E-01  0.00000000E+00
  0.00000000E+00  0.00000000E+00  0.00000000E+00  0.00000000E+00  0.00000000E+00
  0.00000000E+00  0.00000000E+00  0.00000000E+00  0.00000000E+00  0.00000000E+00
Multipole Matrix (0,0,1)                   R   N=          45
  0.00000000E+00  0.00000000E+00  0.00000000E+00  0.00000000E+00  0.00000000E+00
  0.00000000E+00  0.00000000E+00  0.00000000E+00  0.00000000E+00  0.00000000E+00
  6.61826154E-02  4.29475913E-01  0.00000000E+00  0.00000000E+00  0.00000000E+00
  0.00000000E+00  0.00000000E+00  0.00000000E+00  0.00000000E+00  4.17337005E-01
  0.00000000E+00  0.00000000E+00  0.00000000E+00  0.00000000E+00  0.00000000E+00
  0.00000000E+00  0.00000000E+00  0.00000000E+00  0.00000000E+00  0.00000000E+00
  0.00000000E+00  0.00000000E+00  0.00000000E+00  0.00000000E+00  0.00000000E+00
  0.00000000E+00  9.23981518E-03  2.85521548E-01  0.00000000E+00  0.00000000E+00
  0.00000000E+00  8.35481204E-01  0.00000000E+00  0.00000000E+00  0.00000000E+00
Multipole Matrix (2,0,0)                   R   N=          45
  1.34245084E-02  1.38060488E-02  2.16635854E-01  0.00000000E+00  0.00000000E+00
  3.88422978E-01  0.00000000E+00  0.00000000E+00  0.00000000E+00  1.29474326E-01
  0.00000000E+00  0.00000000E+00  0.00000000E+00  0.00000000E+00  1.29474326E-01
  7.71969191E-03  2.38547886E-01  0.00000000E+00  0.00000000E+00  0.00000000E+00
  6.98028842E-01  0.00000000E+00  0.00000000E+00  4.00623506E-01  0.00000000E+00
  0.00000000E+00  0.00000000E+00  2.09408653E+00  0.00000000E+00  0.00000000E+00
  0.00000000E+00  1.33541169E-01  0.00000000E+00  0.00000000E+00  0.00000000E+00
  6.98028842E-01  0.00000000E+00  0.00000000E+00  0.00000000E+00  0.00000000E+00
  1.33541169E-01  0.00000000E+00  0.00000000E+00  0.00000000E+00  6.98028842E-01
Multipole Matrix (1,1,0)                   R   N=          45
  0.00000000E+00  0.00000000E+00  0.00000000E+00  0.00000000E+00  0.00000000E+00
  0.00000000E+00  0.00000000E+00  0.00000000E+00  1.29474326E-01  0.00000000E+00
  0.00000000E+00  0.00000000E+00  0.00000000E+00  0.00000000E+00  0.00000000E+00
  0.00000000E+00  0.00000000E+00  0.00000000E+00  0.00000000E+00  0.00000000E+00
  0.00000000E+00  0.00000000E+00  0.00000000E+00  0.00000000E+00  1.33541169E-01
  0.00000000E+00  0.00000000E+00  0.00000000E+00  0.00000000E+00  0.00000000E+00
  1.33541169E-01  0.00000000E+00  0.00000000E+00  0.00000000E+00  6.98028842E-01
  0.00000000E+00  0.00000000E+00  0.00000000E+00  0.00000000E+00  0.00000000E+00
  0.00000000E+00  0.00000000E+00  0.00000000E+00  0.00000000E+00  0.00000000E+00
Multipole Matrix (0,2,0)                   R   N=          45
  1.34245084E-02  1.38060488E-02  2.16635854E-01  0.00000000E+00  0.00000000E+00
  1.29474326E-01  0.00000000E+00  0.00000000E+00  0.00000000E+00  3.88422978E-01
  0.00000000E+00  0.00000000E+00  0.00000000E+00  0.00000000E+00  1.29474326E-01
  7.71969191E-03  2.38547886E-01  0.00000000E+00  0.00000000E+00  0.00000000E+00
  6.98028842E-01  0.00000000E+00  0.00000000E+00  1.33541169E-01  0.00000000E+00
  0.00000000E+00  0.00000000E+00  6.98028842E-01  0.00000000E+00  0.00000000E+00
  0.00000000E+00  4.00623506E-01  0.00000000E+00  0.00000000E+00  0.00000000E+00
  2.09408653E+00  0.00000000E+00  0.00000000E+00  0.00000000E+00  0.00000000E+00
  1.33541169E-01  0.00000000E+00  0.00000000E+00  0.00000000E+00  6.98028842E-01
Multipole Matrix (1,0,1)                   R   N=          45
  0.00000000E+00  0.00000000E+00  0.00000000E+00  0.00000000E+00  0.00000000E+00