Jobname.Temp
FOPT      R                             6-31G               
Number of atoms                            I                4
Charge                                     I                0
Multiplicity                               I                1
Number of electrons                        I               18
Number of alpha electrons                  I                9
Number of beta electrons                   I                9
Atomic numbers                             I   N=           4
           8           8           1           1
Current cartesian coordinates              R   N=          12
 -4.51996354E+00  2.99388535E+00  1.52541338E-01 -2.68500773E+00  2.97688386E+00
  1.83371370E+00 -6.04697582E+00  3.49393391E+00  1.11588347E+00 -1.77202756E+00
  4.59009525E+00  1.56194255E+00
Nuclear charges                            R   N=           4
  8.00000000E+00  8.00000000E+00  1.00000000E+00  1.00000000E+00
Number of basis functions                  I               22
Number of contracted shells                I               10
Number of primitive shells                 I               28
Highest angular momentum                   I                1
Largest degree of contraction              I                6
Shell types                                I   N=          10
           0          -1          -1           0          -1          -1
           0           0           0           0
Number of primitives per shell             I   N=          10
           6           3           1           6           3           1
           3           1           3           1
Shell to atom map                          I   N=          10
           1           1           1           2           2           2
           3           3           4           4
Primitive exponents                        R   N=          28
  5.48467170E+03  8.25234950E+02  1.88046960E+02  5.29645000E+01  1.68975700E+01
  5.79963530E+00  1.55396160E+01  3.59993360E+00  1.01376180E+00  2.70005800E-01
  5.48467170E+03  8.25234950E+02  1.88046960E+02  5.29645000E+01  1.68975700E+01
  5.79963530E+00  1.55396160E+01  3.59993360E+00  1.01376180E+00  2.70005800E-01
  1.87311370E+01  2.82539370E+00  6.40121700E-01  1.61277800E-01  1.87311370E+01
  2.82539370E+00  6.40121700E-01  1.61277800E-01
Contraction coefficients                   R   N=          28
  1.83109981E-03  1.39500985E-02  6.84450927E-02  2.32714275E-01  4.70192950E-01
  3.58520862E-01 -1.10777504E-01 -1.48026305E-01  1.13076704E+00  1.00000000E+00
  1.83109981E-03  1.39500985E-02  6.84450927E-02  2.32714275E-01  4.70192950E-01
  3.58520862E-01 -1.10777504E-01 -1.48026305E-01  1.13076704E+00  1.00000000E+00
  3.34945995E-02  2.34726947E-01  8.13757318E-01  1.00000000E+00  3.34945995E-02
  2.34726947E-01  8.13757318E-01  1.00000000E+00
P(S=P) Contraction coefficients            R   N=          28
  0.00000000E+00  0.00000000E+00  0.00000000E+00  0.00000000E+00  0.00000000E+00
  0.00000000E+00  7.08742995E-02  3.39752798E-01  7.27158595E-01  1.00000000E+00
  0.00000000E+00  0.00000000E+00  0.00000000E+00  0.00000000E+00  0.00000000E+00
  0.00000000E+00  7.08742995E-02  3.39752798E-01  7.27158595E-01  1.00000000E+00
  0.00000000E+00  0.00000000E+00  0.00000000E+00  0.00000000E+00  0.00000000E+00
  0.00000000E+00  0.00000000E+00  0.00000000E+00
Coordinates of each shell                  R   N=          30
 -4.51996354E+00  2.99388535E+00  1.52541338E-01 -4.51996354E+00  2.99388535E+00
  1.52541338E-01 -4.51996354E+00  2.99388535E+00  1.52541338E-01 -2.68500773E+00
  2.97688386E+00  1.83371370E+00 -2.68500773E+00  2.97688386E+00  1.83371370E+00
 -2.68500773E+00  2.97688386E+00  1.83371370E+00 -6.04697582E+00  3.49393391E+00
  1.11588347E+00 -6.04697582E+00  3.49393391E+00  1.11588347E+00 -1.77202756E+00
  4.59009525E+00  1.56194255E+00 -1.77202756E+00  4.59009525E+00  1.56194255E+00
Current cartesian coordinates              R   N=          12
 -4.51996354E+00  2.99388535E+00  1.52541338E-01 -2.68500773E+00  2.97688386E+00
  1.83371370E+00 -6.04697582E+00  3.49393391E+00  1.11588347E+00 -1.77202756E+00
  4.59009525E+00  1.56194255E+00
Orthonormalization Matrix                  R   N=         253
 -2.78101867E-03 -4.96454858E-02  3.81841570E-03  2.43464487E-02  5.40221193E-03
 -4.10888500E-03 -4.55419977E-02 -2.77203553E-02  2.59749301E-04  2.03536379E-03
  2.81784316E-01 -6.14925046E-03 -4.68514281E-03  1.88227905E-02  1.12838006E+00
  1.55050417E-03  2.67953010E-02 -3.13705818E-01  8.89202215E-02 -2.11222915E-03
  8.40098535E-01  3.43802999E-03  1.49201919E-01  3.12771454E-02 -6.83137732E-01
 -2.79982843E-01  1.20890939E-01 -2.96787704E-02  2.19878525E-02 -9.10773094E-04
  5.25718358E-03  5.53367678E-03  5.98100239E-04  6.71040504E-02  6.19271163E-03
  1.83874713E-02  9.55935106E-04 -9.40818207E-03  1.36128345E-02  2.11835112E-02
  6.71040504E-02 -3.18897758E-03 -3.18319794E-01 -8.08954681E-02  1.44846808E-03
 -3.18897758E-03  5.42189544E-03 -7.84837263E-03 -1.40294959E-02  1.30250933E-02
  6.98595555E-03  2.71953022E-03 -1.01437511E-02  9.95025455E-04  4.62538088E-03
  5.68261633E-03 -1.07336603E-01  1.55394684E+00 -8.20561828E-03  1.88227905E-02
 -1.65012909E-02 -1.08322157E-01 -1.64238436E-02 -3.31061394E-01  1.92091688E-03
 -1.11679590E-05  9.08160413E-03 -1.81776932E-02 -1.03007169E+00  7.10615827E-02
 -1.08025182E-01  1.61465510E+00 -4.68514281E-03  1.07591093E-02  5.42564897E-03
 -1.03007169E+00  1.13048361E+00  5.02374550E-03  4.16313496E-02  1.33910512E-01
 -1.31908498E-02  5.17879063E-02  5.65950065E-02  5.55132742E-03  6.93632253E-03
 -1.07336603E-01 -4.96454854E-02 -1.95166953E-02 -3.49815804E-02  5.28680893E-02
  5.36155121E-03  4.69909098E-02  1.38383498E-01 -5.66081363E-03 -2.37403296E-02
  1.07857986E-02 -2.78101856E-03  3.83631930E-04  2.43222209E-02  3.12771454E-02
  3.21268815E+00 -1.51873592E-02  2.67953010E-02  5.98100239E-04  5.40221193E-03
 -1.95166953E-02  1.17084191E-03 -6.20755684E-04 -4.76224713E-02 -4.92343293E-03
  2.03500440E-02 -1.51873592E-02  8.07371370E-01 -3.30164311E-01  1.12066547E+00
  4.03937920E-03 -9.85849881E-03 -1.20199319E-01 -1.80519063E-01  1.40856056E-01
 -1.11679590E-05  5.75152950E-02  1.53772342E-02  5.24191425E-01 -1.27967970E-01
 -2.31712618E-01 -3.57763678E-01  2.81784316E-01  1.49201919E-01  1.17060105E-04
  8.40098535E-01  5.53367678E-03  4.25246845E-02  1.42214411E-01 -6.25900637E-01
 -3.64413372E-03  3.10177204E-05  3.83632134E-04  2.03500440E-02  1.02282119E+00
 -6.78008082E-04  1.34968914E-02 -8.04263519E-01  5.36741574E-01  8.99301822E-02
 -3.93267384E-03 -8.45125327E-02  1.17060105E-04  1.44846808E-03 -4.46524898E-04
  6.93632253E-03 -6.14925046E-03  2.98843702E-01  2.65591391E-02  1.23013832E-02
  4.62538046E-03  3.43802999E-03  5.25051588E-03 -3.43983604E-02 -4.18609528E-03
  1.25688688E+00  5.25051588E-03  1.77491116E-02  7.30438474E-03  3.49486021E-03
  1.22115635E-02  1.89007587E-01 -1.94402655E-01  8.34548681E-03  1.40856056E-01
  5.75152950E-02 -4.85036877E-03  1.30946154E-02 -3.31061394E-01  2.43222209E-02
  6.09145447E-04 -1.19844240E-02  1.13554996E+00  2.11835112E-02  4.06702629E-02
  2.03500437E-02 -3.18319794E-01 -2.15635521E-04  2.35234338E-02  1.55050417E-03
  1.38383506E-01  2.43464487E-02  4.72779903E-03  3.03143661E-02  6.39541265E-04
 -9.10773094E-04 -3.34808315E-02 -2.19520543E-03  1.07857986E-02 -8.37024862E-02
  3.49486044E-03  6.78871453E-03 -3.43983604E-02 -2.37403296E-02  2.59749301E-04
  1.99759011E-04 -2.11222915E-03 -1.64002218E-02 -2.19520543E-03  1.55394684E+00
 -1.03007169E+00  3.83632134E-04 -2.14425298E-02  9.55935106E-04 -1.07336603E-01
 -5.13387145E-03 -4.92343293E-03 -1.30678905E-02 -5.00608816E-04  1.12762028E+00
 -1.31908456E-02 -3.57763678E-01  1.90658447E-02  2.51172223E-04  1.36128344E-02
 -4.55419977E-02 -4.18609528E-03  5.25718358E-03  3.81841570E-03 -6.51474365E-02
  7.63898908E-04  5.55132742E-03  6.86084978E-03 -1.64238436E-02 -3.64413372E-03
 -7.54301789E-03 -5.66081363E-03  5.17879100E-02  8.34548681E-03  1.91976723E-02
  6.78871453E-03  7.63898908E-04 -2.96787704E-02  1.22115635E-02  1.89007577E-01
  3.83631930E-04  5.65949941E-02  9.95025455E-04  2.03536379E-03  9.29155116E-03
 -1.07336603E-01  2.65591391E-02 -1.80519063E-01  5.36155121E-03 -4.96454858E-02
  1.99759011E-04  2.51172223E-04  1.02282119E+00
Overlap Matrix                             R   N=         253
  1.00000000E+00  2.33689906E-01  1.00000000E+00  3.73839678E-16  6.92304505E-16
  1.00000000E+00 -2.76605105E-17 -3.46096865E-16 -1.12230847E-30  1.00000000E+00
 -2.10415968E-18 -2.59597747E-17 -7.01442793E-32  3.50721397E-32  1.00000000E+00
  1.67279760E-01  7.63640773E-01  4.81931784E-16  2.70280608E-16  1.68925380E-17
  1.00000000E+00 -2.80936742E-21 -6.31807865E-17  5.01520641E-01 -1.92205892E-31
 -1.20128683E-32  0.00000000E+00  1.00000000E+00  2.69365779E-17  4.08869323E-16
 -1.92205892E-31  5.01520641E-01  1.98090449E-32  0.00000000E+00  0.00000000E+00
  1.00000000E+00  8.77927320E-23  2.55543327E-17 -1.20128683E-32  1.98090449E-32
  5.01520641E-01  0.00000000E+00  0.00000000E+00  0.00000000E+00  1.00000000E+00
  2.03700118E-09  1.69643444E-03  3.55714025E-03 -3.29581110E-05  3.25902446E-03
  3.31061549E-02  6.11419130E-02 -5.66500562E-04  5.60177490E-02  1.00000000E+00
  1.69643444E-03  5.32636194E-02  6.71525377E-02 -6.22191039E-04  6.15246369E-02
  2.07960472E-01  3.09078404E-01 -2.86371625E-03  2.83175249E-01  2.33689906E-01
  1.00000000E+00 -3.55714025E-03 -6.71525377E-02 -6.54688094E-02  8.40478243E-04
 -8.31097132E-02 -1.24137183E-01 -6.03029466E-02  1.76501537E-03 -1.74531492E-01
 -1.66365913E-16 -6.92041430E-17  1.00000000E+00  3.29581110E-05  6.22191039E-04
  8.40478243E-04  2.52354891E-02  7.70039682E-04  1.15017311E-03  1.76501537E-03
  1.30177274E-01  1.61709347E-03  1.23803756E-16 -2.76892722E-16 -1.96335187E-31
  1.00000000E+00 -3.25902446E-03 -6.15246369E-02 -8.31097132E-02  7.70039682E-04
 -5.09012015E-02 -1.13733529E-01 -1.74531492E-01  1.61709347E-03 -2.97107782E-02
 -1.58776579E-16 -3.80754324E-16 -9.81675935E-32  6.59321828E-31  1.00000000E+00
  3.31061549E-02  2.07960472E-01  1.24137183E-01 -1.15017311E-03  1.13733529E-01
  4.33368690E-01  4.13208921E-01 -3.82852080E-03  3.78578825E-01  1.67279760E-01
  7.63640773E-01 -4.78513791E-16  2.37547900E-16 -1.04116592E-16  1.00000000E+00
 -6.11419130E-02 -3.09078404E-01 -6.03029466E-02  1.76501537E-03 -1.74531492E-01
 -4.13208921E-01  3.93817312E-02  3.65042281E-03 -3.60967812E-01 -7.07474607E-17
 -3.84022830E-16  5.01520641E-01 -2.20841772E-31  0.00000000E+00  0.00000000E+00
  1.00000000E+00  5.66500562E-04  2.86371625E-03  1.76501537E-03  1.30177274E-01
  1.61709347E-03  3.82852080E-03  3.65042281E-03  4.33334868E-01  3.34448921E-03
  4.38108828E-17  4.15613223E-16 -2.20841772E-31  5.01520641E-01  4.80514731E-32
  0.00000000E+00  0.00000000E+00  1.00000000E+00 -5.60177490E-02 -2.83175249E-01
 -1.74531492E-01  1.61709347E-03 -2.97107782E-02 -3.78578825E-01 -3.60967812E-01
  3.34448921E-03  1.02652766E-01  1.34682889E-17  1.24232465E-17  0.00000000E+00
  4.80514731E-32  5.01520641E-01  0.00000000E+00  0.00000000E+00  0.00000000E+00
  1.00000000E+00  3.03886170E-02  2.26103532E-01 -2.18166212E-01  7.14425815E-02
  1.37633931E-01  4.08287606E-01 -4.70312019E-01  1.54012413E-01  2.96704477E-01
  1.88411041E-04  7.62748014E-03 -1.35496688E-02  2.08385585E-03 -2.89305599E-03
  7.68105958E-02 -1.92608796E-01  2.96220499E-02 -4.11248451E-02  1.00000000E+00
  6.64779713E-02  3.68230038E-01 -1.20639473E-01  3.95056380E-02  7.61074997E-02
  6.67889957E-01 -3.96347052E-01  1.29791209E-01  2.50042398E-01  1.71194885E-02
  1.12766376E-01 -7.94598144E-02  1.22204314E-02 -1.69658531E-02  2.80973269E-01
 -3.67102026E-01  5.64580368E-02 -7.83817469E-02  6.58292049E-01  1.00000000E+00
  1.88411096E-04  7.62748163E-03  1.10749504E-02  6.43317223E-03  5.68028099E-03
  7.68106033E-02  1.57430612E-01  9.14476545E-02  8.07452924E-02  3.03886134E-02
  2.26103513E-01  1.30438642E-01  2.30481569E-01 -3.88282912E-02  4.08287591E-01
  2.81193240E-01  4.96860884E-01 -8.37041297E-02  1.22826123E-03  4.99881589E-02
  1.00000000E+00  1.71194898E-02  1.12766384E-01  6.49472251E-02  3.77262803E-02
  3.33110735E-02  2.80973283E-01  3.00054280E-01  1.74294312E-01  1.53896185E-01
  6.64779692E-02  3.68230028E-01  7.21287216E-02  1.27449509E-01 -2.14708998E-02
  6.67889944E-01  2.36970584E-01  4.18720642E-01 -7.05401613E-02  4.99881589E-02
  2.04614307E-01  6.58292049E-01  1.00000000E+00
Kinetic Energy Matrix                      R   N=         253
  2.95401398E+01 -2.18540273E+00  1.71121096E+00  0.00000000E+00  0.00000000E+00
  4.25187706E+00  0.00000000E+00  0.00000000E+00  0.00000000E+00  4.25187706E+00
  0.00000000E+00  0.00000000E+00  0.00000000E+00  0.00000000E+00  4.25187706E+00
  1.31282499E-01  4.80047821E-01  0.00000000E+00  0.00000000E+00  0.00000000E+00
  4.05008700E-01  0.00000000E+00  0.00000000E+00  5.47243224E-01  0.00000000E+00
  0.00000000E+00  0.00000000E+00  6.75014500E-01  0.00000000E+00  0.00000000E+00
  0.00000000E+00  5.47243224E-01  0.00000000E+00  0.00000000E+00  0.00000000E+00
  6.75014500E-01  0.00000000E+00  0.00000000E+00  0.00000000E+00  0.00000000E+00
  5.47243224E-01  0.00000000E+00  0.00000000E+00  0.00000000E+00  6.75014500E-01
 -1.94544796E-07 -1.23033840E-02 -1.96212813E-02  1.81797827E-04 -1.79768666E-02
 -2.07814222E-03  2.81323017E-02 -2.60655317E-04  2.57745977E-02  2.95401398E+01
 -1.23033840E-02 -8.00144111E-02 -4.72515032E-02  4.37801204E-04 -4.32914626E-02
  1.75276299E-02  1.56278741E-01 -1.44797554E-03  1.43181376E-01 -2.18540273E+00
  1.71121096E+00  1.96212813E-02  4.72515032E-02 -2.35057994E-02 -3.74902815E-06
  3.70718286E-04 -6.20496009E-02 -1.13075809E-01  1.65064524E-03 -1.63222134E-01
  0.00000000E+00  0.00000000E+00  4.25187706E+00 -1.81797827E-04 -4.37801204E-04
 -3.74902815E-06 -2.39103941E-02 -3.43483066E-06  5.74910598E-04  1.65064524E-03
  6.50616029E-02  1.51230843E-03  0.00000000E+00  0.00000000E+00  0.00000000E+00
  4.25187706E+00  1.79768666E-02  4.32914626E-02  3.70718286E-04 -3.43483066E-06
 -2.35707796E-02 -5.68493655E-02 -1.63222134E-01  1.51230843E-03 -8.44659631E-02
  0.00000000E+00  0.00000000E+00  0.00000000E+00  0.00000000E+00  4.25187706E+00
 -2.07814222E-03  1.75276299E-02  6.20496009E-02 -5.74910598E-04  5.68493655E-02
  7.76765329E-02  1.85631923E-01 -1.71994273E-03  1.70074536E-01  1.31282499E-01
  4.80047821E-01  0.00000000E+00  0.00000000E+00  0.00000000E+00  4.05008700E-01
 -2.81323017E-02 -1.56278741E-01 -1.13075809E-01  1.65064524E-03 -1.63222134E-01
 -1.85631923E-01 -8.86867295E-02  2.62556847E-03 -2.59626284E-01  0.00000000E+00
  0.00000000E+00  5.47243224E-01  0.00000000E+00  0.00000000E+00  0.00000000E+00
  6.75014500E-01  2.60655317E-04  1.44797554E-03  1.65064524E-03  6.50616029E-02
  1.51230843E-03  1.71994273E-03  2.62556847E-03  1.94664266E-01  2.40552558E-03
  0.00000000E+00  0.00000000E+00  0.00000000E+00  5.47243224E-01  0.00000000E+00
  0.00000000E+00  0.00000000E+00  6.75014500E-01 -2.57745977E-02 -1.43181376E-01
 -1.63222134E-01  1.51230843E-03 -8.44659631E-02 -1.70074536E-01 -2.59626284E-01
  2.40552558E-03 -4.31790052E-02  0.00000000E+00  0.00000000E+00  0.00000000E+00
  0.00000000E+00  5.47243224E-01  0.00000000E+00  0.00000000E+00  0.00000000E+00
  6.75014500E-01 -2.35983085E-02  2.08976948E-03 -1.51859459E-01  4.97292028E-02
  9.58031684E-02  1.29073619E-01 -3.34481451E-01  1.09532168E-01  2.11013412E-01
 -1.25583410E-03 -1.92721249E-02  2.57695611E-02 -3.96320021E-03  5.50218487E-03
 -2.54498564E-02 -9.68265501E-03  1.48913287E-03 -2.06739097E-03  1.39567828E+00
  1.98707490E-02  1.03241068E-01 -6.81281982E-02  2.23098449E-02  4.29798530E-02
  1.54510939E-01 -1.71728605E-01  5.62357237E-02  1.08337963E-01 -2.23129308E-03
 -5.20428299E-03 -1.78488458E-02  2.74504286E-03 -3.81099427E-03  1.58728611E-02
 -9.48697663E-02  1.45903874E-02 -2.02561073E-02  2.59735083E-01  2.41916700E-01
 -1.25583441E-03 -1.92721275E-02 -2.10629937E-02 -1.22349863E-02 -1.08030933E-02
 -2.54498561E-02  7.91421507E-03  4.59717711E-03  4.05915725E-03 -2.35983094E-02
  2.08975535E-03  9.07947175E-02  1.60431822E-01 -2.70272956E-02  1.29073607E-01
  1.99981963E-01  3.53362745E-01 -5.95295825E-02 -3.82766015E-03 -1.40345791E-02
  1.39567828E+00 -2.23129282E-03 -5.20428120E-03  1.45889229E-02  8.47435431E-03
  7.48257810E-03  1.58728648E-02  7.75426955E-02  4.50426860E-02  3.97712207E-02
  1.98707477E-02  1.03241062E-01  4.07329346E-02  7.19739989E-02 -1.21251665E-02
  1.54510934E-01  1.02674227E-01  1.81422596E-01 -3.05635258E-02 -1.40345791E-02
 -2.85871854E-03  2.59735083E-01  2.41916700E-01
Nuclear Attraction Matrix                  R   N=         253
 -6.55171389E+01 -5.86700150E+00 -1.45670070E+01 -5.71132139E-02 -3.89917032E-01
 -1.57579680E+01 -7.64997264E-03 -5.21138788E-02  1.38677044E-02 -1.55600387E+01
 -7.65303637E-02 -5.21995200E-01 -1.05430517E-01 -1.17793773E-02 -1.56975073E+01
 -5.99353257E+00 -1.01106846E+01 -3.81442563E-01 -4.98496381E-02 -5.05728657E-01
 -1.06107224E+01 -7.87009780E-03 -2.60403634E-01 -5.88373395E+00  1.26163139E-02
 -1.10709146E-01 -7.43660001E-01 -8.58613009E+00 -1.05415242E-03 -3.38825469E-02
  1.26163139E-02 -5.68558283E+00 -1.10917472E-02 -8.09247483E-02  2.06434050E-02
 -7.86232156E+00 -1.05457460E-02 -3.44604896E-01 -1.10709146E-01 -1.10917472E-02
 -5.82471042E+00 -9.03256272E-01 -4.88591669E-01 -3.13561781E-02 -8.39036468E+00
 -2.78242630E-08 -4.98252430E-02 -1.09047914E-01  9.82109105E-04 -9.99001392E-02
 -1.16438715E+00 -2.17695939E+00  1.96710005E-02 -1.99431071E+00 -6.55171388E+01
 -4.98252430E-02 -7.05048638E-01 -8.97976971E-01  5.85981740E-03 -8.24346666E-01
 -2.75995039E+00 -4.15795027E+00  2.11155171E-02 -3.80607431E+00 -5.86700150E+00
 -1.45670070E+01  1.09060304E-01  8.99436564E-01  8.98273713E-01 -8.32751071E-03
  1.10302490E+00  1.63917199E+00  9.56659406E-01 -1.99630208E-02  2.23790949E+00
  6.49653747E-02  4.43391921E-01 -1.57284564E+01 -1.02475007E-03 -1.08831720E-02
 -1.46647535E-02 -3.02278591E-01 -1.33480186E-02 -4.05558221E-02 -6.83394893E-02
 -1.48734082E+00 -5.68337328E-02 -1.93741107E-02 -1.31925890E-01 -2.96478356E-02
 -1.56100671E+01  9.98861848E-02  8.22702757E-01  1.09925382E+00 -7.50694537E-03
  7.07192402E-01  1.50744487E+00  2.24868029E+00 -1.26113807E-02  5.80817104E-01
  6.76866464E-02  4.61767601E-01 -1.31157898E-01  1.13816942E-02 -1.56769904E+01
 -1.16438715E+00 -2.75995039E+00 -1.62770094E+00  1.07691946E-03 -1.52036447E+00
 -4.82387442E+00 -4.58439998E+00 -9.26261494E-03 -4.23097976E+00 -5.99353257E+00
 -1.01106846E+01  4.32417829E-01 -1.25587402E-01  4.48316328E-01 -1.06107224E+01
  2.17717054E+00  4.16589718E+00  9.37981151E-01  3.63495343E-04  2.27623987E+00
  4.61454765E+00  1.25780706E-01 -1.75971772E-03  3.50450450E+00  8.95211139E-03
  2.95027698E-01 -5.85659303E+00 -2.73450453E-02 -1.34548736E-01  8.21908730E-01
 -8.53043517E+00 -2.03976955E-02 -4.84656745E-02 -2.63421450E-02 -1.48059721E+00
 -2.78751946E-02 -9.44939848E-02 -1.00423356E-01 -3.61366386E+00 -8.68715358E-02
 -2.66971749E-03 -8.52800138E-02 -2.73450453E-02 -5.73199544E+00  1.07585672E-02
 -1.88376964E-01 -5.96887964E-02 -7.96906582E+00  1.99407289E+00  3.79712388E+00
  2.22079030E+00 -2.89393393E-03  5.92751737E-01  4.19702508E+00  3.44579318E+00
  4.06730843E-03 -4.00339004E-01  9.32709771E-03  3.05608569E-01 -1.34548736E-01
  1.07585672E-02 -5.80543870E+00  8.15126432E-01 -5.42618503E-01  2.91743776E-02
 -8.33931530E+00 -1.04568121E+00 -2.73717257E+00  2.37125005E+00 -8.04233945E-01
 -1.61339868E+00 -3.84236280E+00  3.79078893E+00 -1.28274698E+00 -2.56442693E+00
 -5.62073341E-03 -9.02922358E-02  1.55875504E-01 -2.25073176E-02  4.20109963E-02
 -7.59771343E-01  1.81509807E+00 -2.56962349E-01  5.03995322E-01 -8.44238438E+00
 -2.35258693E+00 -4.66347810E+00  1.14759060E+00 -4.57472201E-01 -1.07216485E+00
 -6.20773997E+00  2.38188181E+00 -9.82019807E-01 -2.34917730E+00 -6.00615236E-01
 -1.45116890E+00  9.81775225E-01 -1.49394981E-01  2.91951041E-01 -2.80446008E+00
  3.38927198E+00 -4.64989661E-01  1.15047689E+00 -5.17243935E+00 -6.86023150E+00
 -5.62073512E-03 -9.02922526E-02 -1.29514255E-01 -6.82179565E-02 -7.17011367E-02
 -7.59771403E-01 -1.51299453E+00 -7.82761125E-01 -8.44248142E-01 -1.04568108E+00
 -2.73717234E+00 -1.38547053E+00 -2.58843543E+00  5.03136810E-01 -3.84236263E+00
 -2.21867612E+00 -4.12785394E+00  7.93790647E-01 -1.26094354E-02 -4.63348464E-01
 -8.44238431E+00 -6.00615284E-01 -1.45116900E+00 -8.16381585E-01 -4.19825878E-01
 -4.78230383E-01 -2.80446021E+00 -2.86581458E+00 -1.33654777E+00 -1.74003573E+00
 -2.35258685E+00 -4.66347797E+00 -5.90723170E-01 -1.45904898E+00  4.44977229E-01
 -6.20773985E+00 -1.19045178E+00 -3.11841922E+00  1.00729568E+00 -4.63348471E-01
 -1.76651845E+00 -5.17243931E+00 -6.86023148E+00
Core Hamiltonian Matrix                    R   N=         253
 -3.59769991E+01 -8.05240423E+00 -1.28557961E+01 -5.71132139E-02 -3.89917032E-01
 -1.15060910E+01 -7.64997264E-03 -5.21138788E-02  1.38677044E-02 -1.13081617E+01
 -7.65303637E-02 -5.21995200E-01 -1.05430517E-01 -1.17793773E-02 -1.14456302E+01
 -5.86225007E+00 -9.63063676E+00 -3.81442563E-01 -4.98496381E-02 -5.05728657E-01
 -1.02057137E+01 -7.87009780E-03 -2.60403634E-01 -5.33649072E+00  1.26163139E-02
 -1.10709146E-01 -7.43660001E-01 -7.91111559E+00 -1.05415242E-03 -3.38825469E-02
  1.26163139E-02 -5.13833961E+00 -1.10917472E-02 -8.09247483E-02  2.06434050E-02
 -7.18730706E+00 -1.05457460E-02 -3.44604896E-01 -1.10709146E-01 -1.10917472E-02
 -5.27746719E+00 -9.03256272E-01 -4.88591669E-01 -3.13561781E-02 -7.71535018E+00
 -2.22369059E-07 -6.21286269E-02 -1.28669195E-01  1.16390693E-03 -1.17877006E-01
 -1.16646529E+00 -2.14882709E+00  1.94103452E-02 -1.96853611E+00 -3.59769990E+01
 -6.21286270E-02 -7.85063049E-01 -9.45228474E-01  6.29761861E-03 -8.67638128E-01
 -2.74242276E+00 -4.00167153E+00  1.96675416E-02 -3.66289293E+00 -8.05240423E+00
 -1.28557960E+01  1.28681585E-01  9.46688067E-01  8.74767913E-01 -8.33125974E-03
  1.10339561E+00  1.57712239E+00  8.43583598E-01 -1.83123755E-02  2.07468736E+00
  6.49653747E-02  4.43391921E-01 -1.14765793E+01 -1.20654790E-03 -1.13209732E-02
 -1.46685025E-02 -3.26188985E-01 -1.33514534E-02 -3.99809115E-02 -6.66888441E-02
 -1.42227922E+00 -5.53214244E-02 -1.93741107E-02 -1.31925890E-01 -2.96478356E-02
 -1.13581901E+01  1.17863051E-01  8.65994219E-01  1.09962454E+00 -7.51038020E-03
  6.83621622E-01  1.45059551E+00  2.08545815E+00 -1.10990723E-02  4.96351141E-01
  6.76866464E-02  4.61767601E-01 -1.31157898E-01  1.13816942E-02 -1.14251134E+01
 -1.16646530E+00 -2.74242276E+00 -1.56565134E+00  5.02008861E-04 -1.46351511E+00
 -4.74619789E+00 -4.39876806E+00 -1.09825577E-02 -4.06090522E+00 -5.86225007E+00
 -9.63063674E+00  4.32417829E-01 -1.25587402E-01  4.48316328E-01 -1.02057137E+01
  2.14903824E+00  4.00961843E+00  8.24905343E-01  2.01414058E-03  2.11301773E+00
  4.42891573E+00  3.70939769E-02  8.65850756E-04  3.24487821E+00  8.95211139E-03
  2.95027698E-01 -5.30934981E+00 -2.73450453E-02 -1.34548736E-01  8.21908730E-01
 -7.85542067E+00 -2.01370402E-02 -4.70176990E-02 -2.46914998E-02 -1.41553560E+00
 -2.63628862E-02 -9.27740421E-02 -9.77977874E-02 -3.41899959E+00 -8.44660102E-02
 -2.66971749E-03 -8.52800138E-02 -2.73450453E-02 -5.18475222E+00  1.07585672E-02
 -1.88376964E-01 -5.96887964E-02 -7.29405132E+00  1.96829830E+00  3.65394251E+00
  2.05756817E+00 -1.38162550E-03  5.08285774E-01  4.02695055E+00  3.18616690E+00
  6.47283401E-03 -4.43518010E-01  9.32709771E-03  3.05608569E-01 -1.34548736E-01
  1.07585672E-02 -5.25819547E+00  8.15126432E-01 -5.42618503E-01  2.91743776E-02
 -7.66430080E+00 -1.06927952E+00 -2.73508280E+00  2.21939059E+00 -7.54504742E-01
 -1.51759551E+00 -3.71328919E+00  3.45630748E+00 -1.17321481E+00 -2.35341352E+00
 -6.87656751E-03 -1.09564361E-01  1.81645066E-01 -2.64705178E-02  4.75131812E-02
 -7.85221200E-01  1.80541542E+00 -2.55473216E-01  5.01927931E-01 -7.04670610E+00
 -2.33271618E+00 -4.56023703E+00  1.07946240E+00 -4.35162357E-01 -1.02918500E+00
 -6.05322903E+00  2.21015320E+00 -9.25784083E-01 -2.24083933E+00 -6.02846529E-01
 -1.45637318E+00  9.63926379E-01 -1.46649938E-01  2.88140047E-01 -2.78858722E+00
  3.29440221E+00 -4.50399273E-01  1.13022078E+00 -4.91270426E+00 -6.61831480E+00
 -6.87656953E-03 -1.09564380E-01 -1.50577249E-01 -8.04529428E-02 -8.25042299E-02
 -7.85221259E-01 -1.50508032E+00 -7.78163948E-01 -8.40188985E-01 -1.06927939E+00
 -2.73508258E+00 -1.29467581E+00 -2.42800361E+00  4.76109514E-01 -3.71328902E+00
 -2.01869416E+00 -3.77449120E+00  7.34261064E-01 -1.64370955E-02 -4.77383043E-01
 -7.04670603E+00 -6.02846577E-01 -1.45637328E+00 -8.01792662E-01 -4.11351524E-01
 -4.70747805E-01 -2.78858734E+00 -2.78827189E+00 -1.29150509E+00 -1.70026451E+00
 -2.33271610E+00 -4.56023691E+00 -5.49990235E-01 -1.38707498E+00  4.32852063E-01
 -6.05322892E+00 -1.08777755E+00 -2.93699663E+00  9.76732152E-01 -4.77383050E-01
 -1.76937717E+00 -4.91270423E+00 -6.61831478E+00
Multipole Matrix (1,0,0)                   R   N=         253
 -4.51996354E+00 -1.05626986E+00 -4.51996354E+00  7.27077806E-02  4.96075284E-01
 -4.51996354E+00  0.00000000E+00  0.00000000E+00  0.00000000E+00 -4.51996354E+00
  0.00000000E+00  0.00000000E+00  0.00000000E+00  0.00000000E+00 -4.51996354E+00
 -7.56098415E-01 -3.45162845E+00  4.82583279E-01  0.00000000E+00  0.00000000E+00
 -4.51996354E+00  1.00190010E-02  3.29089724E-01 -2.26685501E+00  0.00000000E+00
  0.00000000E+00  9.62240114E-01 -4.51996354E+00  0.00000000E+00  0.00000000E+00
  0.00000000E+00 -2.26685501E+00  0.00000000E+00  0.00000000E+00  0.00000000E+00
 -4.51996354E+00  0.00000000E+00  0.00000000E+00  0.00000000E+00  0.00000000E+00
 -2.26685501E+00  0.00000000E+00  0.00000000E+00  0.00000000E+00 -4.51996354E+00
 -7.33826506E-09 -4.92137276E-03 -1.01760125E-02  9.54662934E-05 -9.44007334E-03
 -9.08054119E-02 -1.65667083E-01  1.55357176E-03 -1.53623136E-01 -2.68500773E+00
 -7.30138864E-03 -1.91881424E-01 -2.26317142E-01  2.26785971E-03 -2.24254669E-01
 -6.42566114E-01 -8.67938622E-01  8.85985811E-03 -8.76096760E-01 -6.27459204E-01
 -2.68500773E+00  1.54530808E-02  2.57514963E-01  2.35850445E-01 -3.24239743E-03
  3.20620697E-01  5.03069627E-01  3.28280171E-01 -7.14503256E-03  7.06528232E-01
  7.27077806E-02  4.96075284E-01 -2.68500773E+00 -1.41995949E-04 -2.21500884E-03
 -2.81322417E-03 -9.09104871E-02 -2.77405689E-03 -3.50037191E-03 -4.93154716E-03
 -3.96174241E-01 -4.91427531E-03  0.00000000E+00  0.00000000E+00  0.00000000E+00
 -2.68500773E+00  1.40411042E-02  2.19028572E-01  2.78182399E-01 -2.77405689E-03
  1.83370847E-01  3.46130204E-01  4.87650303E-01 -4.91427531E-03  8.97184578E-02
  0.00000000E+00  0.00000000E+00  0.00000000E+00  0.00000000E+00 -2.68500773E+00
 -1.47723483E-01 -8.55783114E-01 -3.91335210E-01  4.78659227E-03 -4.73316607E-01
 -1.56120448E+00 -1.07157446E+00  1.37921912E-02 -1.36382478E+00 -4.49147447E-01
 -2.05038138E+00  4.82583279E-01  0.00000000E+00  0.00000000E+00 -2.68500773E+00
  2.74858644E-01  1.35896240E+00  1.06200826E-01 -7.78533789E-03  7.69844079E-01
  1.90558394E+00 -1.41872121E-01 -1.68345520E-02  1.66466509E+00  1.00190010E-02
  3.29089724E-01 -1.34658680E+00  0.00000000E+00  0.00000000E+00  9.62240114E-01
 -2.68500773E+00 -2.52804851E-03 -1.17731352E-02 -5.57185249E-03 -5.41749280E-01
 -6.73683666E-03 -1.37921912E-02 -9.46663942E-03 -1.56108264E+00 -1.20484743E-02
  0.00000000E+00  0.00000000E+00  0.00000000E+00 -1.34658680E+00  0.00000000E+00
  0.00000000E+00  0.00000000E+00 -2.68500773E+00  2.49983136E-01  1.16417278E+00
  5.50966150E-01 -6.73683666E-03  1.24346846E-01  1.36382478E+00  9.36097625E-01
 -1.20484743E-02 -3.69805115E-01  0.00000000E+00  0.00000000E+00  0.00000000E+00
  0.00000000E+00 -1.34658680E+00  0.00000000E+00  0.00000000E+00  0.00000000E+00
 -2.68500773E+00 -1.40718632E-01 -1.16971329E+00  1.22159661E+00 -3.66726925E-01
 -7.06498383E-01 -2.29799819E+00  2.86673193E+00 -8.68230307E-01 -1.67264323E+00
 -5.55040693E-04 -3.05329064E-02  5.68759075E-02 -8.26538930E-03  1.14749943E-02
 -3.91572954E-01  1.02619698E+00 -1.51405090E-01  2.10198514E-01 -6.04697582E+00
 -3.02409530E-01 -1.74587376E+00  8.13587716E-01 -1.86217478E-01 -3.58747444E-01
 -3.40021929E+00  2.82248764E+00 -6.60765399E-01 -1.27296267E+00 -4.70682347E-02
 -3.57310925E-01  3.20827279E-01 -3.80721876E-02  5.28563290E-02 -1.10765569E+00
  1.78571669E+00 -2.22569450E-01  3.08997324E-01 -3.98067611E+00 -6.04697582E+00
 -8.11433493E-04 -2.62589722E-02 -3.53263978E-02 -2.23399117E-02 -1.97254125E-02
 -1.95695077E-01 -3.57651532E-01 -2.31990691E-01 -2.04840204E-01 -7.95828551E-02
 -5.18761769E-01 -2.00693986E-01 -5.34343798E-01  9.00187234E-02 -8.25679921E-01
 -3.51747226E-01 -1.00212101E+00  1.68823245E-01 -4.80188934E-03 -1.29260746E-01
 -1.77202756E+00 -7.64785144E-02 -4.65127428E-01 -1.97434857E-01 -1.57248213E-01
 -1.38845036E-01 -9.81264731E-01 -7.09379424E-01 -6.08701507E-01 -5.37463552E-01
 -1.77339029E-01 -9.39980242E-01  5.96185809E-02 -3.27440609E-01  5.51625859E-02
 -1.56526706E+00  2.49325494E-01 -9.81313814E-01  1.65317942E-01 -2.61596837E-01
 -7.99939977E-01 -1.16651165E+00 -1.77202756E+00
Multipole Matrix (0,1,0)                   R   N=         253
  2.99388535E+00  6.99640787E-01  2.99388535E+00  0.00000000E+00  0.00000000E+00
  2.99388535E+00  7.27077806E-02  4.96075284E-01  0.00000000E+00  2.99388535E+00
  0.00000000E+00  0.00000000E+00  0.00000000E+00  0.00000000E+00  2.99388535E+00
  5.00816422E-01  2.28625293E+00  0.00000000E+00  4.82583279E-01  0.00000000E+00
  2.99388535E+00  0.00000000E+00  0.00000000E+00  1.50149530E+00  0.00000000E+00
  0.00000000E+00  0.00000000E+00  2.99388535E+00  1.00190010E-02  3.29089724E-01
  0.00000000E+00  1.50149530E+00  0.00000000E+00  9.62240114E-01  0.00000000E+00
  2.99388535E+00  0.00000000E+00  0.00000000E+00  0.00000000E+00  0.00000000E+00
  1.50149530E+00  0.00000000E+00  0.00000000E+00  0.00000000E+00  2.99388535E+00
  6.08122995E-09  5.05348344E-03  1.05961669E-02  2.94044202E-05  9.70812639E-03