Jobname.Temp
FOPT      R                             6-31G               
Number of atoms                            I                4
Charge                                     I                0
Multiplicity                               I                1
Number of electrons                        I               18
Number of alpha electrons                  I                9
Number of beta electrons                   I                9
Atomic numbers                             I   N=           4
           8           8           1           1
Current cartesian coordinates              R   N=          12
  1.20840112E+00 -2.93548596E-01  7.61451669E-17 -1.20839982E+00  2.93547058E-01
 -7.61449949E-17  2.09263425E+00  1.35608624E+00 -6.02313468E-18 -2.09264460E+00
 -1.35607394E+00  6.02175867E-18
Nuclear charges                            R   N=           4
  8.00000000E+00  8.00000000E+00  1.00000000E+00  1.00000000E+00
Number of basis functions                  I               22
Number of contracted shells                I               10
Number of primitive shells                 I               28
Highest angular momentum                   I                1
Largest degree of contraction              I                6
Shell types                                I   N=          10
           0          -1          -1           0          -1          -1
           0           0           0           0
Number of primitives per shell             I   N=          10
           6           3           1           6           3           1
           3           1           3           1
Shell to atom map                          I   N=          10
           1           1           1           2           2           2
           3           3           4           4
Primitive exponents                        R   N=          28
  5.48467170E+03  8.25234950E+02  1.88046960E+02  5.29645000E+01  1.68975700E+01
  5.79963530E+00  1.55396160E+01  3.59993360E+00  1.01376180E+00  2.70005800E-01
  5.48467170E+03  8.25234950E+02  1.88046960E+02  5.29645000E+01  1.68975700E+01
  5.79963530E+00  1.55396160E+01  3.59993360E+00  1.01376180E+00  2.70005800E-01
  1.87311370E+01  2.82539370E+00  6.40121700E-01  1.61277800E-01  1.87311370E+01
  2.82539370E+00  6.40121700E-01  1.61277800E-01
Contraction coefficients                   R   N=          28
  1.83109981E-03  1.39500985E-02  6.84450927E-02  2.32714275E-01  4.70192950E-01
  3.58520862E-01 -1.10777504E-01 -1.48026305E-01  1.13076704E+00  1.00000000E+00
  1.83109981E-03  1.39500985E-02  6.84450927E-02  2.32714275E-01  4.70192950E-01
  3.58520862E-01 -1.10777504E-01 -1.48026305E-01  1.13076704E+00  1.00000000E+00
  3.34945995E-02  2.34726947E-01  8.13757318E-01  1.00000000E+00  3.34945995E-02
  2.34726947E-01  8.13757318E-01  1.00000000E+00
P(S=P) Contraction coefficients            R   N=          28
  0.00000000E+00  0.00000000E+00  0.00000000E+00  0.00000000E+00  0.00000000E+00
  0.00000000E+00  7.08742995E-02  3.39752798E-01  7.27158595E-01  1.00000000E+00
  0.00000000E+00  0.00000000E+00  0.00000000E+00  0.00000000E+00  0.00000000E+00
  0.00000000E+00  7.08742995E-02  3.39752798E-01  7.27158595E-01  1.00000000E+00
  0.00000000E+00  0.00000000E+00  0.00000000E+00  0.00000000E+00  0.00000000E+00
  0.00000000E+00  0.00000000E+00  0.00000000E+00
Coordinates of each shell                  R   N=          30
  1.20840112E+00 -2.93548596E-01  7.61451669E-17  1.20840112E+00 -2.93548596E-01
  7.61451669E-17  1.20840112E+00 -2.93548596E-01  7.61451669E-17 -1.20839982E+00
  2.93547058E-01 -7.61449949E-17 -1.20839982E+00  2.93547058E-01 -7.61449949E-17
 -1.20839982E+00  2.93547058E-01 -7.61449949E-17  2.09263425E+00  1.35608624E+00
 -6.02313468E-18  2.09263425E+00  1.35608624E+00 -6.02313468E-18 -2.09264460E+00
 -1.35607394E+00  6.02175867E-18 -2.09264460E+00 -1.35607394E+00  6.02175867E-18
Current cartesian coordinates              R   N=          12
  1.20840112E+00 -2.93548596E-01  7.61451669E-17 -1.20839982E+00  2.93547058E-01
 -7.61449949E-17  2.09263425E+00  1.35608624E+00 -6.02313468E-18 -2.09264460E+00
 -1.35607394E+00  6.02175867E-18
Orthonormalization Matrix                  R   N=         253
 -2.49665902E-03 -4.95294924E-02  9.15590240E-17 -3.66559747E-04  3.64211316E-03
  3.67158785E-04 -4.62741621E-16  2.89754357E-02 -1.81765247E-03  1.10807409E-03
 -6.50289424E-01 -2.02292361E-02  3.77832978E-17 -2.30071614E-02  1.12990846E+00
 -4.37423907E-18  2.34779797E-02 -2.93409762E-01 -9.65832076E-02 -1.49569819E-17
 -1.69442071E-17  9.26008504E-03 -3.94098269E-16  2.99464349E-16 -5.68149393E-16
  5.16388373E-16  1.24485567E-01  1.12210343E-01  2.34781651E-02 -9.10874956E-04
  8.78307688E-17  9.06562796E-17 -7.40026659E-04 -7.29481269E-02 -2.35566043E-17
 -2.05879145E-01  6.74083842E-17  1.27736836E-02  1.34292922E-02 -3.09196520E-02
 -7.29481269E-02 -1.27736880E-02 -3.45568961E-01  5.55793733E-02  7.52878146E-04
 -1.27736880E-02  3.01524591E-16 -7.45995519E-17 -7.87569407E-18 -5.42710897E-17
 -2.55227180E-02  4.77404701E-03 -3.31106140E-02 -2.93713749E-19  4.86168618E-03
  1.56667051E-03 -1.07371331E-01  1.55350406E+00  1.32734069E-02 -2.30071614E-02
 -2.02643159E-01 -3.84418331E-01  8.48332367E-17 -3.14949776E-01  6.41846639E-18
  1.10813243E-03 -5.87230536E-17  5.97484703E-17 -1.02886151E+00 -1.12208902E-01
  1.45755606E-01  1.21543312E+00  3.77832978E-17  2.01575294E-16  1.42920634E-16
 -1.02886151E+00  1.13493528E+00 -5.96213602E-17  2.79888248E-02 -2.33683876E-16
 -1.31937382E-02  4.65411188E-02  5.40730728E-02 -7.48801550E-03 -8.68568744E-03
 -1.07371331E-01 -4.95295487E-02 -5.15997758E-02  3.01420486E-02 -5.24018742E-02
 -9.25998538E-03 -2.78720661E-16  1.39875400E-01  7.48802642E-03  3.09197710E-02
  1.39522452E-02 -2.49666488E-03  3.75439569E-04 -1.60298676E-16  2.99464349E-16
  3.21245131E+00 -2.46727632E-03  2.34779797E-02 -7.40026659E-04  3.64211316E-03
 -5.15997758E-02  2.97290600E-16 -1.77285735E-16  7.55916251E-02 -1.50702812E-17
  2.05141528E-02 -2.46727632E-03 -1.03055829E+00 -3.19894230E-01  1.12990846E+00
 -2.61832132E-02 -2.05880754E-01 -3.78419551E-01 -2.11530068E-16  6.02771558E-01
  1.10813243E-03 -5.05463929E-16  1.25537614E-16 -5.70940817E-17  4.52301526E-16
 -2.14454241E-01 -3.47488267E-01 -6.50289424E-01 -3.94098269E-16  1.81765503E-03
 -1.69442071E-17  9.06562796E-17  2.79888248E-02 -2.79925775E-01 -6.35583920E-01
  1.09593350E-02  1.03506679E-16  3.75417340E-04  2.05141528E-02  1.02281830E+00
  1.35057413E-16  2.73264497E-02  1.03055708E+00  3.69538259E-16 -8.54672688E-02
 -2.02290312E-02  2.93204578E-17  1.81765503E-03  7.52878146E-04  6.16339025E-04
 -8.68568744E-03 -2.02292361E-02  7.16433589E-01  5.12020133E-16  2.00026827E-17
  4.86174078E-03  9.26008504E-03 -9.14766667E-03 -1.45756346E-01  2.03715154E-16
  1.58908731E+00 -9.14766667E-03 -2.57536495E-02 -1.09592064E-02  2.81813521E-03
  1.12998261E-02  1.92175060E-01  2.22885404E-01 -7.16794303E-03  6.02771558E-01
 -5.05463929E-16  1.34292892E-02 -8.92523090E-20 -3.14949776E-01 -1.60298676E-16
  2.09193647E-17  7.29483954E-02 -1.32735978E-02 -7.48801550E-03 -8.22683975E-17
  1.84985403E-16 -3.45568961E-01 -3.50226368E-17  8.63039989E-02 -4.37423907E-18
  1.39874330E-01 -3.66559747E-04 -1.05224106E-16 -3.01418599E-02 -7.52912935E-04
  3.75439569E-04  5.40745648E-02 -2.93713749E-19  1.10807409E-03 -1.66255133E-02
 -1.07371319E-01  5.12020133E-16 -2.11530068E-16 -9.25998538E-03  7.48802642E-03
  4.65407555E-02 -7.16794303E-03  2.73265172E-02  2.30072795E-02  1.55350414E+00
 -1.02886151E+00  3.75417340E-04  3.69161503E-16  6.74083842E-17 -1.07371319E-01
  2.05141811E-02 -1.50702812E-17  2.46726463E-03  5.46272716E-03  1.11943289E+00
 -1.31942019E-02 -3.47488267E-01 -1.66190880E-02  7.40044159E-04  8.41413705E-17
 -4.62741621E-16  2.03715154E-16  8.78307688E-17  9.15590240E-17  9.14689399E-03
  1.13493509E+00 -3.09196520E-02 -2.89745421E-02  8.48332367E-17  1.09593350E-02
  8.68568429E-03 -1.81765247E-03 -6.16341299E-04 -1.49569819E-17 -2.61827608E-02
  3.64197099E-03 -1.32735978E-02  1.12210343E-01  1.12998261E-02  1.92176175E-01
 -9.10874956E-04 -5.37544115E-17  3.64197099E-03  1.39522452E-02  5.24007428E-02
  2.81812132E-03  2.30072795E-02 -1.45756346E-01  3.09197710E-02 -4.95294924E-02
 -6.16341299E-04  7.40044159E-04  1.02281830E+00
Overlap Matrix                             R   N=         253
  1.00000000E+00  2.33689906E-01  1.00000000E+00 -1.32302800E-16 -1.73076126E-16
  1.00000000E+00 -6.18683639E-18  5.37268418E-18  0.00000000E+00  1.00000000E+00
 -3.63412490E-33 -3.84306201E-32  4.20491098E-47  0.00000000E+00  1.00000000E+00
  1.67279760E-01  7.63640773E-01  1.18773950E-16  0.00000000E+00  4.94916422E-32
  1.00000000E+00  7.02341856E-22  2.07806611E-16  5.01520641E-01  0.00000000E+00
  1.30977696E-47  0.00000000E+00  1.00000000E+00 -1.75585464E-22  0.00000000E+00
  0.00000000E+00  5.01520641E-01  0.00000000E+00  0.00000000E+00  0.00000000E+00
  1.00000000E+00  2.34709685E-33  4.33838221E-32  1.30977696E-47  0.00000000E+00
  5.01520641E-01  0.00000000E+00  0.00000000E+00  0.00000000E+00  1.00000000E+00
  2.08532676E-09  1.70874494E-03 -4.71917434E-03  1.14639427E-03 -1.31893591E-18
  3.31762154E-02 -8.06998311E-02  1.96038157E-02 -2.25543490E-17  1.00000000E+00
  1.70874494E-03  5.34771635E-02 -8.88128701E-02  2.15746565E-02 -2.48218173E-17
  2.08314561E-01 -4.07775101E-01  9.90578023E-02 -1.13966805E-16  2.33689906E-01
  1.00000000E+00  4.71917434E-03  8.88128701E-02 -1.32705441E-01  3.83958316E-02
 -4.41747157E-17  1.63787222E-01 -2.00619281E-01  8.04175470E-02 -9.25210402E-17
 -2.81536418E-17  1.86792988E-16  1.00000000E+00 -1.14639427E-03 -2.15746565E-02
  3.83958316E-02  1.60252009E-02  1.07310384E-17 -3.97876236E-02  8.04175470E-02
  1.10887278E-01  2.24754549E-17  6.06398155E-17  1.73079592E-17 -6.69828586E-33
  1.00000000E+00  1.31893591E-18  2.48218173E-17 -4.41747157E-17  1.07310384E-17
  2.53524175E-02  4.57759837E-17 -9.25210402E-17  2.24754549E-17  1.30422520E-01
 -5.59104249E-33  4.78399703E-32  3.11503176E-47 -2.72469806E-48  1.00000000E+00
  3.31762154E-02  2.08314561E-01 -1.63787222E-01  3.97876236E-02 -4.57759837E-17
  4.33841930E-01 -5.44827412E-01  1.32350911E-01 -1.52270797E-16  1.67279760E-01
  7.63640773E-01 -2.39256896E-16 -3.01207365E-17 -4.94916422E-32  1.00000000E+00
  8.06998311E-02  4.07775101E-01 -2.00619281E-01  8.04175470E-02 -9.25210402E-17
  5.44827412E-01 -2.50363282E-01  1.66208933E-01 -1.91224726E-16 -1.05925237E-17
 -1.92011415E-16  5.01520641E-01  0.00000000E+00  1.22591810E-47  0.00000000E+00
  1.00000000E+00 -1.96038157E-02 -9.90578023E-02  8.04175470E-02  1.10887278E-01
  2.24754549E-17 -1.32350911E-01  1.66208933E-01  3.93466018E-01  4.64528145E-17
  0.00000000E+00  3.94879916E-18  0.00000000E+00  5.01520641E-01 -2.09647143E-49
  0.00000000E+00  0.00000000E+00  1.00000000E+00  2.25543490E-17  1.13966805E-16
 -9.25210402E-17  2.24754549E-17  1.30422520E-01  1.52270797E-16 -1.91224726E-16
  4.64528145E-17  4.33841930E-01  6.33476299E-34 -4.33838221E-32  1.22591810E-47
 -2.09647143E-49  5.01520641E-01  0.00000000E+00  0.00000000E+00  0.00000000E+00
  1.00000000E+00  3.05105264E-02  2.26720493E-01  1.26713727E-01  2.36398490E-01
 -3.27610213E-16  4.08822479E-01  2.72698992E-01  5.08750168E-01 -7.05045752E-16
  1.95163571E-04  7.80751685E-03  1.36251441E-02  4.38567102E-03 -6.64810084E-18
  7.77034208E-02  1.91328339E-01  6.15849008E-02 -9.33546153E-17  1.00000000E+00
  6.65482627E-02  3.68569401E-01  6.99233451E-02  1.30449744E-01 -1.80782324E-16
  6.68340567E-01  2.29663932E-01  4.28463498E-01 -5.93781366E-16  1.72817513E-02
  1.13698767E-01  7.86767024E-02  2.53245125E-02 -3.83886325E-17  2.82670181E-01
  3.62625376E-01  1.16722112E-01 -1.76935381E-16  6.58292049E-01  1.00000000E+00
  1.95158100E-04  7.80737185E-03 -1.36249335E-02 -4.38553064E-03  6.64789945E-18
  7.77027058E-02 -1.91327244E-01 -6.15835290E-02  9.33526960E-17  3.05109847E-02
  2.26722811E-01 -1.26716832E-01 -2.36399186E-01  3.27611316E-16  4.08824487E-01
 -2.72703933E-01 -5.08748419E-01  7.05043626E-16  2.31658557E-04  2.53743033E-02
  1.00000000E+00  1.72816215E-02  1.13698021E-01 -7.86764547E-02 -2.53240136E-02
  3.83879421E-17  2.82668826E-01 -3.62624917E-01 -1.16720033E-01  1.76932532E-16
  6.65485266E-02  3.68570675E-01 -6.99245128E-02 -1.30449110E-01  1.80781522E-16
  6.68342258E-01 -2.29667538E-01 -4.28460988E-01  5.93778138E-16  2.53743033E-02
  1.34568663E-01  6.58292049E-01  1.00000000E+00
Kinetic Energy Matrix                      R   N=         253
  2.95401398E+01 -2.18540273E+00  1.71121096E+00  0.00000000E+00  0.00000000E+00
  4.25187706E+00  0.00000000E+00  0.00000000E+00  0.00000000E+00  4.25187706E+00
  0.00000000E+00  0.00000000E+00  0.00000000E+00  0.00000000E+00  4.25187706E+00
  1.31282499E-01  4.80047821E-01  0.00000000E+00  0.00000000E+00  0.00000000E+00
  4.05008700E-01  0.00000000E+00  0.00000000E+00  5.47243224E-01  0.00000000E+00
  0.00000000E+00  0.00000000E+00  6.75014500E-01  0.00000000E+00  0.00000000E+00
  0.00000000E+00  5.47243224E-01  0.00000000E+00  0.00000000E+00  0.00000000E+00
  6.75014500E-01  0.00000000E+00  0.00000000E+00  0.00000000E+00  0.00000000E+00
  5.47243224E-01  0.00000000E+00  0.00000000E+00  0.00000000E+00  6.75014500E-01
 -1.98877480E-07 -1.23710823E-02  2.59714047E-02 -6.30904208E-03  7.25860408E-18
 -2.04586761E-03 -3.72204629E-02  9.04169295E-03 -1.04025411E-17  2.95401398E+01
 -1.23710823E-02 -8.01043380E-02  6.21225827E-02 -1.50909815E-02  1.73622967E-17
  1.77067927E-02 -2.06472310E-01  5.01567977E-02 -5.77058026E-17 -2.18540273E+00
  1.71121096E+00 -2.59714047E-02 -6.21225827E-02 -2.38699312E-02 -9.90029107E-06
  1.13903652E-20  8.19938074E-02 -2.44555365E-01  7.52687068E-02 -8.65972577E-17
  0.00000000E+00  0.00000000E+00  4.25187706E+00  6.30904208E-03  1.50909815E-02
 -9.90029107E-06 -2.39082811E-02 -2.76697753E-21 -1.99181518E-02  7.52687068E-02
  4.70065733E-02  2.10364341E-17  0.00000000E+00  0.00000000E+00  0.00000000E+00
  4.25187706E+00 -7.25860408E-18 -1.73622967E-17  1.13903652E-20 -2.76697753E-21
 -2.39106861E-02  2.29159952E-17 -8.65972577E-17  2.10364341E-17  6.52910460E-02
  0.00000000E+00  0.00000000E+00  0.00000000E+00  0.00000000E+00  4.25187706E+00
 -2.04586761E-03  1.77067927E-02 -8.19938074E-02  1.99181518E-02 -2.29159952E-17
  7.78892031E-02 -2.44921388E-01  5.94969490E-02 -6.84517225E-17  1.31282499E-01
  4.80047821E-01  0.00000000E+00  0.00000000E+00  0.00000000E+00  4.05008700E-01
  3.72204629E-02  2.06472310E-01 -2.44555365E-01  7.52687068E-02 -8.65972577E-17
  2.44921388E-01 -2.97287535E-01  1.19594840E-01 -1.37594834E-16  0.00000000E+00
  0.00000000E+00  5.47243224E-01  0.00000000E+00  0.00000000E+00  0.00000000E+00
  6.75014500E-01 -9.04169295E-03 -5.01567977E-02  7.52687068E-02  4.70065733E-02
  2.10364341E-17 -5.94969490E-02  1.19594840E-01  1.65976747E-01  3.34248996E-17
  0.00000000E+00  0.00000000E+00  0.00000000E+00  5.47243224E-01  0.00000000E+00
  0.00000000E+00  0.00000000E+00  6.75014500E-01  1.04025411E-17  5.77058026E-17
 -8.65972577E-17  2.10364341E-17  6.52910460E-02  6.84517225E-17 -1.37594834E-16
  3.34248996E-17  1.95029040E-01  0.00000000E+00  0.00000000E+00  0.00000000E+00
  0.00000000E+00  5.47243224E-01  0.00000000E+00  0.00000000E+00  0.00000000E+00
  6.75014500E-01 -2.35663125E-02  2.57404348E-03  8.85082558E-02  1.65121953E-01
 -2.28832418E-16  1.29454157E-01  1.94085912E-01  3.62088761E-01 -5.01796676E-16
 -1.29284318E-03 -1.95858905E-02 -2.56761084E-02 -8.26464391E-03  1.25281139E-17
 -2.54029722E-02  1.04742519E-02  3.37145961E-03 -5.11068965E-18  1.39567828E+00
  1.99140158E-02  1.03429699E-01  3.95060795E-02  7.37029662E-02 -1.02140435E-16
  1.54706209E-01  9.95396934E-02  1.85702321E-01 -2.57353493E-16 -2.20086923E-03
 -4.98849685E-03  1.78585087E-02  5.74830938E-03 -8.71368151E-18  1.63124249E-02
  9.41537902E-02  3.03062885E-02 -4.59403501E-17  2.59735083E-01  2.41916700E-01
 -1.29281330E-03 -1.95856391E-02  2.56759002E-02  8.26444009E-03 -1.25278264E-17
 -2.54030114E-02 -1.04735104E-02 -3.37116513E-03  5.11025203E-18 -2.35661915E-02
  2.57586582E-03 -8.85115744E-02 -1.65124584E-01  2.28836162E-16  1.29455587E-01
 -1.94089973E-01 -3.62088531E-01  5.01796569E-16 -9.62806867E-04 -1.15770065E-02
  1.39567828E+00 -2.20089376E-03 -4.98867019E-03 -1.78583047E-02 -5.74814859E-03
  8.71345271E-18  1.63120730E-02 -9.41533200E-02 -3.03056355E-02  4.59394391E-17
  1.99141782E-02  1.03430408E-01 -3.95068089E-02 -7.37027380E-02  1.02140161E-16
  1.54706942E-01 -9.95413736E-02 -1.85701452E-01  2.57352397E-16 -1.15770065E-02
 -1.09747570E-02  2.59735083E-01  2.41916700E-01
Nuclear Attraction Matrix                  R   N=         253
 -6.55204592E+01 -5.86777743E+00 -1.45703256E+01  8.73272196E-02  5.95959402E-01
 -1.58386095E+01 -3.86378725E-02 -2.63348038E-01  2.56831421E-02 -1.56319604E+01
  4.80812079E-17  3.27673767E-16 -2.05457195E-17  1.03414262E-16 -1.55548932E+01
 -5.99408800E+00 -1.01132057E+01  5.80646347E-01 -2.53196971E-01  3.14655792E-16
 -1.06137208E+01  1.20335333E-02  3.96086332E-01 -5.96750414E+00  2.91630264E-02
 -2.50356747E-17  1.09231367E+00 -8.96563626E+00 -5.32422909E-03 -1.72271140E-01
  2.91630264E-02 -5.75234909E+00  9.80810386E-17 -4.17942724E-01  1.57113044E-01
 -8.04269440E+00  6.62550366E-18  2.14034941E-16 -2.50356747E-17  9.80810386E-17
 -5.67907744E+00  5.12619591E-16 -1.56435060E-16  2.70221506E-16 -7.83796709E+00
 -2.85060833E-08 -5.02100418E-02  1.44736854E-01 -3.51366401E-02  4.04201551E-17
 -1.16699994E+00  2.87364128E+00 -6.97620918E-01  8.02524495E-16 -6.55204617E+01
 -5.02100389E-02 -7.08345764E-01  1.18945380E+00 -2.89093611E-01  3.32635436E-16
 -2.76578292E+00  5.48809537E+00 -1.32072352E+00  1.51690892E-15 -5.86777801E+00
 -1.45703281E+01 -1.44736846E-01 -1.18945379E+00  1.79070926E+00 -5.10367245E-01
  5.87530108E-16 -2.16365412E+00  2.75915465E+00 -1.03337512E+00  1.18957811E-15
 -8.73269990E-02 -5.95957907E-01 -1.58386125E+01  3.51366380E-02  2.89093572E-01
 -5.10367184E-01 -1.80266159E-01 -1.41418823E-16  5.44369563E-01 -1.08051610E+00
 -1.23273326E+00 -2.83343384E-16  3.86378802E-02  2.63348077E-01  2.56823472E-02
 -1.56319627E+01 -4.04201526E-17 -3.32635383E-16  5.87530024E-16 -1.41418820E-16
 -3.03347357E-01 -6.30209651E-16  1.25362982E-15 -2.85727821E-16 -1.48149335E+00
 -4.80812296E-17 -3.27673896E-16 -2.05445992E-17  1.03414413E-16 -1.55548954E+01
 -1.16699986E+00 -2.76578270E+00  2.16365414E+00 -5.44369715E-01  6.30209855E-16
 -4.83123935E+00  6.06716761E+00 -1.47385272E+00  1.69567959E-15 -5.99408841E+00
 -1.01132075E+01 -5.80644971E-01  2.53196925E-01 -3.14655799E-16 -1.06137227E+01
 -2.87364109E+00 -5.48809480E+00  2.75915489E+00 -1.08051631E+00  1.25363009E-15
 -6.06716727E+00  2.92742241E+00 -1.65769051E+00  1.92256654E-15 -1.20335029E-02
 -3.96085404E-01 -5.96750579E+00  2.91623485E-02 -2.50347177E-17 -1.09231204E+00
 -8.96563894E+00  6.97620874E-01  1.32072327E+00 -1.03337496E+00 -1.23273317E+00
 -2.85727784E-16  1.47385189E+00 -1.65768957E+00 -3.23762756E+00 -3.98261422E-16
  5.32423016E-03  1.72271096E-01  2.91623485E-02 -5.75234998E+00  9.80810059E-17
  4.17941902E-01  1.57111716E-01 -8.04269462E+00 -8.02524443E-16 -1.51690860E-15
  1.18957790E-15 -2.83343329E-16 -1.48149322E+00 -1.69567848E-15  1.92256526E-15
 -3.98261374E-16 -3.59245169E+00 -6.62550665E-18 -2.14034929E-16 -2.50347177E-17
  9.80810059E-17 -5.67907838E+00 -5.12618558E-16 -1.56433178E-16  2.70220288E-16
 -7.83796826E+00 -1.04998488E+00 -2.74257252E+00 -1.32026085E+00 -2.67283563E+00
  3.69843287E-15 -3.84188526E+00 -2.11261688E+00 -4.24830435E+00  5.87914223E-15
 -5.82414719E-03 -9.21061742E-02 -1.60490617E-01 -4.21504406E-02  6.53886958E-17
 -7.66220794E-01 -1.85385440E+00 -4.71903615E-01  7.34957746E-16 -8.42714317E+00
 -2.35525029E+00 -4.66663669E+00 -4.97986036E-01 -1.55171032E+00  2.13353866E-15
 -6.20466580E+00 -9.76457517E-01 -3.32695592E+00  4.56981359E-15 -6.06284200E-01
 -1.45945065E+00 -1.00971725E+00 -2.31908983E-01  3.66173382E-16 -2.81019684E+00
 -3.54329438E+00 -6.77928765E-01  1.10034312E-15 -5.16214490E+00 -6.84273530E+00
 -5.82397908E-03 -9.21045647E-02  1.60488361E-01  4.21490131E-02 -6.53866421E-17
 -7.66215476E-01  1.85384762E+00  4.71892335E-01 -7.34942077E-16 -1.05000112E+00
 -2.74260251E+00  1.32029619E+00  2.67284566E+00 -3.69844829E-15 -3.84190801E+00
  2.11265923E+00  4.24829207E+00 -5.87912768E-15 -3.02644015E-03 -2.59813557E-01
 -8.42715360E+00 -6.06279578E-01 -1.45944113E+00  1.00971404E+00  2.31903642E-01
 -3.66165963E-16 -2.81018487E+00  3.54329160E+00  6.77913068E-01 -1.10032165E-15
 -2.35525984E+00 -4.66665332E+00  4.97999296E-01  1.55170392E+00 -2.13353063E-15
 -6.20468111E+00  9.76485077E-01  3.32693691E+00 -4.56978915E-15 -2.59812909E-01
 -1.28406974E+00 -5.16215079E+00 -6.84273832E+00
Core Hamiltonian Matrix                    R   N=         253
 -3.59803194E+01 -8.05318016E+00 -1.28591147E+01  8.73272196E-02  5.95959402E-01
 -1.15867324E+01 -3.86378725E-02 -2.63348038E-01  2.56831421E-02 -1.13800834E+01
  4.80812079E-17  3.27673767E-16 -2.05457195E-17  1.03414262E-16 -1.13030161E+01
 -5.86280550E+00 -9.63315785E+00  5.80646347E-01 -2.53196971E-01  3.14655792E-16
 -1.02087121E+01  1.20335333E-02  3.96086332E-01 -5.42026092E+00  2.91630264E-02
 -2.50356747E-17  1.09231367E+00 -8.29062176E+00 -5.32422909E-03 -1.72271140E-01
  2.91630264E-02 -5.20510587E+00  9.80810386E-17 -4.17942724E-01  1.57113044E-01
 -7.36767990E+00  6.62550366E-18  2.14034941E-16 -2.50356747E-17  9.80810386E-17
 -5.13183422E+00  5.12619591E-16 -1.56435060E-16  2.70221506E-16 -7.16295259E+00
 -2.27383563E-07 -6.25811241E-02  1.70708258E-01 -4.14456822E-02  4.76787592E-17
 -1.16904580E+00  2.83642082E+00 -6.88579225E-01  7.92121954E-16 -3.59803219E+01
 -6.25811212E-02 -7.88450102E-01  1.25157638E+00 -3.04184593E-01  3.49997733E-16
 -2.74807613E+00  5.28162306E+00 -1.27056673E+00  1.45920312E-15 -8.05318074E+00
 -1.28591171E+01 -1.70708250E-01 -1.25157638E+00  1.76683933E+00 -5.10377146E-01
  5.87541498E-16 -2.08166031E+00  2.51459929E+00 -9.58106412E-01  1.10298086E-15
 -8.73269990E-02 -5.95957907E-01 -1.15867354E+01  4.14456801E-02  3.04184554E-01
 -5.10377084E-01 -2.04174441E-01 -1.41421590E-16  5.24451412E-01 -1.00524739E+00
 -1.18572669E+00 -2.62306950E-16  3.86378802E-02  2.63348077E-01  2.56823472E-02
 -1.13800856E+01 -4.76787567E-17 -3.49997679E-16  5.87541415E-16 -1.41421587E-16
 -3.27258043E-01 -6.07293656E-16  1.16703256E-15 -2.64691386E-16 -1.41620231E+00
 -4.80812296E-17 -3.27673896E-16 -2.05445992E-17  1.03414413E-16 -1.13030183E+01
 -1.16904573E+00 -2.74807591E+00  2.08166034E+00 -5.24451563E-01  6.07293860E-16
 -4.75335014E+00  5.82224623E+00 -1.41435577E+00  1.62722787E-15 -5.86280591E+00
 -9.63315970E+00 -5.80644971E-01  2.53196925E-01 -3.14655799E-16 -1.02087140E+01
 -2.83642063E+00 -5.28162249E+00  2.51459952E+00 -1.00524760E+00  1.16703283E-15
 -5.82224588E+00  2.63013488E+00 -1.53809567E+00  1.78497171E-15 -1.20335029E-02
 -3.96085404E-01 -5.42026256E+00  2.91623485E-02 -2.50347177E-17 -1.09231204E+00
 -8.29062444E+00  6.88579181E-01  1.27056647E+00 -9.58106256E-01 -1.18572659E+00
 -2.64691350E-16  1.41435494E+00 -1.53809473E+00 -3.07165081E+00 -3.64836522E-16
  5.32423016E-03  1.72271096E-01  2.91623485E-02 -5.20510675E+00  9.80810059E-17
  4.17941902E-01  1.57111716E-01 -7.36768012E+00 -7.92121902E-16 -1.45920280E-15
  1.10298064E-15 -2.62306895E-16 -1.41620218E+00 -1.62722675E-15  1.78497043E-15
 -3.64836474E-16 -3.39742265E+00 -6.62550665E-18 -2.14034929E-16 -2.50347177E-17
  9.80810059E-17 -5.13183515E+00 -5.12618558E-16 -1.56433178E-16  2.70220288E-16
 -7.16295376E+00 -1.07355119E+00 -2.73999848E+00 -1.23175260E+00 -2.50771367E+00
  3.46960045E-15 -3.71243110E+00 -1.91853097E+00 -3.88621559E+00  5.37734556E-15
 -7.11699036E-03 -1.11692065E-01 -1.86166726E-01 -5.04150845E-02  7.79168097E-17
 -7.91623767E-01 -1.84338014E+00 -4.68532155E-01  7.29847057E-16 -7.03146489E+00
 -2.33533627E+00 -4.56320699E+00 -4.58479957E-01 -1.47800735E+00  2.03139822E-15
 -6.04995959E+00 -8.76917824E-01 -3.14125360E+00  4.31246009E-15 -6.08485069E-01
 -1.46443915E+00 -9.91858745E-01 -2.26160674E-01  3.57459701E-16 -2.79388441E+00
 -3.44914059E+00 -6.47622477E-01  1.05440277E-15 -4.90240981E+00 -6.60081860E+00
 -7.11679238E-03 -1.11690204E-01  1.86164261E-01  5.04134532E-02 -7.79144685E-17
 -7.91618487E-01  1.84337411E+00  4.68521170E-01 -7.29831825E-16 -1.07356731E+00
 -2.74002665E+00  1.23178462E+00  2.50772108E+00 -3.46961213E-15 -3.71245242E+00
  1.91856926E+00  3.88620354E+00 -5.37733112E-15 -3.98924702E-03 -2.71390564E-01
 -7.03147532E+00 -6.08480472E-01 -1.46442980E+00  9.91855734E-01  2.26155494E-01
 -3.57452510E-16 -2.79387280E+00  3.44913828E+00  6.47607432E-01 -1.05438221E-15
 -2.33534566E+00 -4.56322291E+00  4.58492487E-01  1.47800118E+00 -2.03139047E-15
 -6.04997417E+00  8.76943704E-01  3.14123546E+00 -4.31243675E-15 -2.71389916E-01
 -1.29504450E+00 -4.90241570E+00 -6.60082162E+00
Multipole Matrix (1,0,0)                   R   N=         253
  1.20840112E+00  2.82391143E-01  1.20840112E+00  7.27077806E-02  4.96075284E-01
  1.20840112E+00  0.00000000E+00  0.00000000E+00  0.00000000E+00  1.20840112E+00
  0.00000000E+00  0.00000000E+00  0.00000000E+00  0.00000000E+00  1.20840112E+00
  2.02141048E-01  9.22784362E-01  4.82583279E-01  0.00000000E+00  0.00000000E+00
  1.20840112E+00  1.00190010E-02  3.29089724E-01  6.06038102E-01  0.00000000E+00
  0.00000000E+00  9.62240114E-01  1.20840112E+00  0.00000000E+00  0.00000000E+00
  0.00000000E+00  6.06038102E-01  0.00000000E+00  0.00000000E+00  0.00000000E+00
  1.20840112E+00  0.00000000E+00  0.00000000E+00  0.00000000E+00  0.00000000E+00
  6.06038102E-01  0.00000000E+00  0.00000000E+00  0.00000000E+00  1.20840112E+00
  1.34912934E-15 -1.57879323E-03  4.51620901E-03 -1.06587669E-03  1.22629978E-18
 -3.75624390E-02  9.34302704E-02 -2.22073769E-02  2.55497673E-17 -1.20839982E+00
  1.57879544E-03  3.45977599E-08  1.35485910E-02  1.20974170E-03 -1.39181763E-18
 -1.40650012E-01  3.61630826E-01 -6.63618105E-02  7.63498012E-17 -2.82390841E-01
 -1.20839982E+00  4.51621512E-03  1.35487059E-02 -8.58555444E-08  7.44217190E-03
 -8.56227914E-18  4.87674140E-03 -4.24397578E-02  1.92955228E-03 -2.21996555E-18
  7.27077806E-02  4.96075284E-01 -1.20839982E+00 -1.06587817E-03  1.20971378E-03
 -7.44212222E-03  1.03677162E-08  6.94258754E-24  2.93015809E-02 -7.46409426E-02
 -8.15499682E-02 -1.66819642E-17  0.00000000E+00  0.00000000E+00  0.00000000E+00
 -1.20839982E+00  1.22630148E-18 -1.39178552E-18  8.56222198E-18  6.94258754E-24
  1.64020826E-08 -3.37117065E-17  8.58750100E-17 -1.66819642E-17 -9.60496175E-02
  0.00000000E+00  0.00000000E+00  0.00000000E+00  0.00000000E+00 -1.20839982E+00
  3.75624819E-02  1.40650282E-01  4.87652948E-03  2.93016323E-02 -3.37117657E-17
  2.80679788E-07  4.17459755E-01  8.56261765E-08 -9.85136106E-23 -2.02140832E-01
 -9.22783374E-01  4.82583279E-01  0.00000000E+00  0.00000000E+00 -1.20839982E+00
  9.34303749E-02  3.61631354E-01  4.24394982E-02  7.46410467E-02 -8.58751297E-17
  4.17460460E-01 -1.61975844E-07  1.27353463E-01 -1.46521192E-16  1.00190010E-02
  3.29089724E-01 -6.06037453E-01  0.00000000E+00  0.00000000E+00  9.62240114E-01
 -1.20839982E+00 -2.22074023E-02 -6.63619386E-02 -1.92944823E-03  8.15501116E-02
  1.66819933E-17 -8.56261765E-08 -1.27353248E-01  2.54558056E-07  3.00532642E-23
  0.00000000E+00  0.00000000E+00  0.00000000E+00 -6.06037453E-01  0.00000000E+00
  0.00000000E+00  0.00000000E+00 -1.20839982E+00  2.55497965E-17  7.63499487E-17
  2.21984584E-18  1.66819933E-17  9.60497863E-02  9.85136106E-23  1.46520945E-16
  3.00532642E-23  2.80679788E-07  0.00000000E+00  0.00000000E+00  0.00000000E+00
  0.00000000E+00 -6.06037453E-01  0.00000000E+00  0.00000000E+00  0.00000000E+00
 -1.20839982E+00  3.88243301E-02  3.59764462E-01  3.00120625E-01  3.69619142E-01
 -5.12232570E-16  7.56423448E-01  7.21655250E-01  9.43973740E-01 -1.30819549E-15
 -1.85866244E-04  6.70873112E-04  3.88476843E-03  2.17879325E-04 -3.30276420E-19
  9.02070026E-02  2.66834037E-01  7.23029669E-02 -1.09601795E-16  2.09263425E+00
  8.15366417E-02  4.92609634E-01  3.37500185E-01  1.72269563E-01 -2.38737855E-16
  1.02861533E+00  1.15869900E+00  6.59430456E-01 -9.13864351E-16 -1.97907584E-02
 -8.34042921E-02  1.20683536E-02 -1.98995177E-02  3.01650534E-17  7.35408726E-03
  3.50002054E-01  3.03670021E-03 -4.60323840E-18  1.37756449E+00  2.09263425E+00
  1.85861090E-04 -6.70884892E-04  3.88474103E-03  2.17886418E-04 -3.30287739E-19
 -9.02067121E-02  2.66833700E-01  7.23017849E-02 -1.09600191E-16 -3.88248998E-02
 -3.59769033E-01  3.00127011E-01  3.69621082E-01 -5.12235474E-16 -7.56430101E-01
  7.21667435E-01  9.43974189E-01 -1.30819667E-15 -1.19899660E-09 -3.27560657E-02
 -2.09264460E+00  1.97906282E-02  8.34037041E-02  1.20680720E-02 -1.98991202E-02
  3.01645026E-17 -7.35491721E-03  3.50001519E-01  3.03700337E-03 -4.60370584E-18
 -8.15368936E-02 -4.92611482E-01  3.37502605E-01  1.72268750E-01 -2.38736828E-16
 -1.02861998E+00  1.15870729E+00  6.59427904E-01 -9.13861200E-16  3.27558031E-02
 -6.96487843E-07 -1.37757130E+00 -2.09264460E+00
Multipole Matrix (0,1,0)                   R   N=         253
 -2.93548596E-01 -6.85993437E-02 -2.93548596E-01  0.00000000E+00  0.00000000E+00
 -2.93548596E-01  7.27077806E-02  4.96075284E-01  0.00000000E+00 -2.93548596E-01
  0.00000000E+00  0.00000000E+00  0.00000000E+00  0.00000000E+00 -2.93548596E-01
 -4.91047385E-02 -2.24165677E-01  0.00000000E+00  4.82583279E-01  0.00000000E+00
 -2.93548596E-01  0.00000000E+00  0.00000000E+00 -1.47220680E-01  0.00000000E+00
  0.00000000E+00  0.00000000E+00 -2.93548596E-01  1.00190010E-02  3.29089724E-01
  0.00000000E+00 -1.47220680E-01  0.00000000E+00  9.62240114E-01  0.00000000E+00
 -2.93548596E-01  0.00000000E+00  0.00000000E+00  0.00000000E+00  0.00000000E+00
 -1.47220680E-01  0.00000000E+00  0.00000000E+00  0.00000000E+00 -2.93548596E-01
 -1.60317486E-15  3.83523568E-04 -1.06587380E-03  3.87413138E-04 -2.97895167E-19