Jobname.Temp
FREQ      R                             6-31G               
Number of atoms                            I                4
Charge                                     I                0
Multiplicity                               I                1
Number of electrons                        I               18
Number of alpha electrons                  I                9
Number of beta electrons                   I                9
Atomic numbers                             I   N=           4
           8           8           1           1
Current cartesian coordinates              R   N=          12
 -1.22591557E+00  2.13375182E-01 -1.28163385E-01  1.22591557E+00 -2.13375182E-01
 -1.28163385E-01  1.93686018E+00  1.08042974E+00  1.02530607E+00 -1.93686018E+00
 -1.08042974E+00  1.02530607E+00
Nuclear charges                            R   N=           4
  8.00000000E+00  8.00000000E+00  1.00000000E+00  1.00000000E+00
Number of basis functions                  I               22
Number of contracted shells                I               10
Number of primitive shells                 I               28
Highest angular momentum                   I                1
Largest degree of contraction              I                6
Shell types                                I   N=          10
           0          -1          -1           0          -1          -1
           0           0           0           0
Number of primitives per shell             I   N=          10
           6           3           1           6           3           1
           3           1           3           1
Shell to atom map                          I   N=          10
           1           1           1           2           2           2
           3           3           4           4
Primitive exponents                        R   N=          28
  5.48467170E+03  8.25234950E+02  1.88046960E+02  5.29645000E+01  1.68975700E+01
  5.79963530E+00  1.55396160E+01  3.59993360E+00  1.01376180E+00  2.70005800E-01
  5.48467170E+03  8.25234950E+02  1.88046960E+02  5.29645000E+01  1.68975700E+01
  5.79963530E+00  1.55396160E+01  3.59993360E+00  1.01376180E+00  2.70005800E-01
  1.87311370E+01  2.82539370E+00  6.40121700E-01  1.61277800E-01  1.87311370E+01
  2.82539370E+00  6.40121700E-01  1.61277800E-01
Contraction coefficients                   R   N=          28
  1.83109981E-03  1.39500985E-02  6.84450927E-02  2.32714275E-01  4.70192950E-01
  3.58520862E-01 -1.10777504E-01 -1.48026305E-01  1.13076704E+00  1.00000000E+00
  1.83109981E-03  1.39500985E-02  6.84450927E-02  2.32714275E-01  4.70192950E-01
  3.58520862E-01 -1.10777504E-01 -1.48026305E-01  1.13076704E+00  1.00000000E+00
  3.34945995E-02  2.34726947E-01  8.13757318E-01  1.00000000E+00  3.34945995E-02
  2.34726947E-01  8.13757318E-01  1.00000000E+00
P(S=P) Contraction coefficients            R   N=          28
  0.00000000E+00  0.00000000E+00  0.00000000E+00  0.00000000E+00  0.00000000E+00
  0.00000000E+00  7.08742995E-02  3.39752798E-01  7.27158595E-01  1.00000000E+00
  0.00000000E+00  0.00000000E+00  0.00000000E+00  0.00000000E+00  0.00000000E+00
  0.00000000E+00  7.08742995E-02  3.39752798E-01  7.27158595E-01  1.00000000E+00
  0.00000000E+00  0.00000000E+00  0.00000000E+00  0.00000000E+00  0.00000000E+00
  0.00000000E+00  0.00000000E+00  0.00000000E+00
Coordinates of each shell                  R   N=          30
 -1.22591557E+00  2.13375182E-01 -1.28163385E-01 -1.22591557E+00  2.13375182E-01
 -1.28163385E-01 -1.22591557E+00  2.13375182E-01 -1.28163385E-01  1.22591557E+00
 -2.13375182E-01 -1.28163385E-01  1.22591557E+00 -2.13375182E-01 -1.28163385E-01
  1.22591557E+00 -2.13375182E-01 -1.28163385E-01  1.93686018E+00  1.08042974E+00
  1.02530607E+00  1.93686018E+00  1.08042974E+00  1.02530607E+00 -1.93686018E+00
 -1.08042974E+00  1.02530607E+00 -1.93686018E+00 -1.08042974E+00  1.02530607E+00
Orthonormalization Matrix                  R   N=         253
  1.36128177E-02 -4.96456642E-02 -1.17795806E-03 -5.97960038E-03  2.12599701E-03
  5.97960038E-03 -3.80165651E-02 -1.48712363E-02  1.35775138E-03  7.53080890E-04
  7.05497885E-01 -1.50184993E-02  2.61590090E-03  1.76424096E-02  1.12584168E+00
 -4.86438078E-03  2.57418481E-02 -2.95241852E-01  2.95829802E-01  8.25149584E-03
  3.05915400E-01 -7.31727581E-03 -9.35777039E-02 -3.67497580E-03 -5.83925360E-03
  5.91549204E-02 -3.30164057E-01 -1.26137546E-01  2.57418481E-02 -9.10785950E-04
  2.05673200E-04  1.13970435E-03  5.48710261E-04  7.34139714E-02 -2.26069820E-03
 -1.48307118E-01  4.63565250E-04 -9.77046072E-03 -2.78102447E-03  3.12324270E-02
  7.34139714E-02  9.77046072E-03 -3.33743598E-01  2.11105269E-02 -3.73730182E-04
  9.77046072E-03 -1.54222882E-02 -2.45889993E-03  9.73357608E-04 -2.43254992E-02
 -1.78579345E-02  3.45410601E-03 -5.84223205E-03 -2.87910371E-03  3.49488082E-03
  2.48986049E-03 -1.07336565E-01  1.55394696E+00 -1.56645625E-02  1.76424096E-02
  1.35687004E-01  7.46285968E-02 -6.87581595E-03 -3.29379446E-01  5.79224714E-02
  7.53080890E-04  2.26069820E-03  1.39793797E-02 -1.03007281E+00  1.26137546E-01
 -1.12682851E-01  1.38029335E+00  2.61590090E-03 -2.63974796E-03 -2.49293708E-01
 -1.03007281E+00  1.13388471E+00  2.87910371E-03  2.50943000E-02 -7.77381192E-02
  5.65957700E-02  1.38382624E-01 -1.31907375E-02  7.52252631E-03  8.90999713E-03
 -1.07336565E-01 -4.96456642E-02  3.95818809E-02  4.24085117E-02 -2.74044876E-02
  7.31727581E-03  8.76720953E-03  5.17871037E-02 -7.52252631E-03 -3.12324270E-02
  1.32469142E-02  1.36128177E-02  3.83983301E-04  4.80297914E-03 -3.67497580E-03
  3.21272043E+00  1.50452881E-04  2.57418481E-02  5.48710261E-04  2.12599701E-03
  3.95818809E-02  2.45889993E-03  2.63974796E-03  3.01144514E-01  1.58612688E-02
  2.03501223E-02  1.50452881E-04  1.04660953E+00  1.20890916E-01  1.12584168E+00
 -1.88186829E-02 -1.48307118E-01 -4.73191721E-02 -7.77381192E-02 -4.62305901E-01
  7.53080890E-04 -1.72816945E-01  1.21620771E-02 -1.62576695E-02 -1.72169190E-02
 -6.25891995E-01 -3.44021785E-01  7.05497885E-01 -9.35777039E-02 -1.35775138E-03
  3.05915400E-01  1.13970435E-03  2.50943000E-02 -3.13296926E-01 -2.31713631E-01
 -1.22660729E-02 -2.61590090E-03  3.83983301E-04  2.03501223E-02  1.02282120E+00
  4.63565250E-04  3.19820513E-02 -1.04660953E+00  1.62576695E-02  4.61118336E-02
 -1.50184993E-02 -2.85097860E-01 -1.35775138E-03 -3.73730182E-04 -7.07670325E-04
  8.90999713E-03 -1.50184993E-02  7.35886115E-01  1.39793797E-02 -6.87581595E-03
  3.49488082E-03 -7.31727581E-03  1.02623938E-02  1.12682851E-01  1.47846569E-02
  1.44095995E+00  1.02623938E-02 -6.79264239E-02  1.22660729E-02  4.62535014E-03
  1.22122380E-02  1.89009881E-01  3.49558019E-01 -3.32356184E-03 -4.62305901E-01
 -1.72816945E-01  2.03501223E-02  1.58612688E-02 -1.50452881E-04  2.66516767E-02
  1.12410942E+00  5.65957700E-02 -3.44021785E-01  1.80499481E-02 -5.48710261E-04
 -2.78102447E-03 -3.80165651E-02  1.47846569E-02  2.05673200E-04 -1.17795806E-03
 -7.34139714E-02  1.56645625E-02  7.52252631E-03 -1.21620771E-02  3.73730182E-04
  1.35775138E-03  7.07670325E-04  8.25149584E-03 -1.88186829E-02  2.12599701E-03
  1.56645625E-02 -1.26137546E-01  1.22122380E-02  1.89009881E-01  3.83983301E-04
 -3.67497580E-03  2.12599701E-03  1.32469142E-02  2.74044876E-02  4.62535014E-03
 -1.76424096E-02  1.12682851E-01 -3.12324270E-02  4.63565250E-04 -1.07336565E-01
  1.13970435E-03  1.28574885E-02 -3.29379446E-01  4.80297914E-03 -1.91148091E-04
 -1.02623938E-02  1.13388471E+00  3.12324270E-02  1.48712363E-02  2.05673200E-04
 -3.33743598E-01  1.91148091E-04  2.02429671E-02 -4.86438078E-03  5.17871037E-02
 -5.97960038E-03  1.17795806E-03 -4.24085117E-02 -6.87581595E-03 -1.22660729E-02
 -8.90999713E-03 -9.10785950E-04 -1.31907375E-02 -2.87910371E-03  7.53080890E-04
  2.55265821E-02 -1.07336565E-01  1.39793797E-02 -7.77381192E-02  7.31727581E-03
 -7.52252631E-03  1.38382624E-01 -3.32356184E-03  3.19820513E-02 -1.76424096E-02
  1.55394696E+00 -1.03007281E+00  3.83983301E-04  4.80297914E-03 -4.96456642E-02
  7.07670325E-04 -5.48710261E-04  1.02282120E+00
Overlap Matrix                             R   N=         253
  1.00000000E+00  2.33689906E-01  1.00000000E+00  9.33019557E-17 -3.46020715E-17
  1.00000000E+00  1.27381142E-17 -6.75913896E-17 -6.13547459E-33  1.00000000E+00
 -4.70805658E-19 -4.32525894E-18  6.13547459E-33 -7.66934324E-34  1.00000000E+00
  1.67279760E-01  7.63640773E-01  1.63663542E-17 -2.04579428E-18 -2.78613177E-17
  1.00000000E+00  2.87576520E-18 -3.37195016E-18  5.01520641E-01 -4.72083398E-34
  4.72083398E-34  0.00000000E+00  1.00000000E+00 -3.56703246E-19  4.21493770E-19
 -4.72083398E-34  5.01520641E-01 -5.90104247E-35  0.00000000E+00  0.00000000E+00
  1.00000000E+00  0.00000000E+00 -2.44229206E-17  4.72083398E-34 -5.90104247E-35
  5.01520641E-01  0.00000000E+00  0.00000000E+00  0.00000000E+00  1.00000000E+00
  2.03759532E-09  1.69658701E-03  4.75340821E-03 -8.27348443E-04 -3.01214839E-22
  3.31070254E-02  8.16987462E-02 -1.42199717E-02  0.00000000E+00  1.00000000E+00
  1.69658701E-03  5.32662703E-02  8.97324947E-02 -1.56182757E-02 -5.94385204E-26
  2.07964873E-01  4.12993077E-01 -7.18829868E-02 -6.48935731E-18  2.33689906E-01
  1.00000000E+00 -4.75340821E-03 -8.97324947E-02 -1.36719532E-01  2.81904671E-02
 -4.65505028E-25 -1.65873237E-01 -2.09919150E-01  5.91983936E-02  4.26184187E-18
 -9.33019557E-17  3.46020715E-17  1.00000000E+00  8.27348443E-04  1.56182757E-02
  2.81904671E-02  2.03379750E-02  8.10228878E-26  2.88708561E-02  5.91983936E-02
  1.19892771E-01 -7.41789487E-19 -1.27381142E-17  6.75913896E-17 -6.13547459E-33
  1.00000000E+00 -3.01214839E-22 -5.94385204E-26  4.65505028E-25 -8.10228878E-26
  2.52446310E-02 -7.58924171E-18 -1.50758878E-17  2.62401455E-18  1.30196472E-01
 -4.70805658E-19 -4.32525894E-18 -6.13547459E-33  7.66934324E-34  1.00000000E+00
  3.31070254E-02  2.07964873E-01  1.65873237E-01 -2.88708561E-02 -7.58924171E-18
  4.33374573E-01  5.52128965E-01 -9.61001074E-02  0.00000000E+00  1.67279760E-01
  7.63640773E-01 -1.63663542E-17  2.04579428E-18 -2.78613177E-17  1.00000000E+00
 -8.16987462E-02 -4.12993077E-01 -2.09919150E-01  5.91983936E-02  1.50758878E-17
 -5.52128965E-01 -2.70050162E-01  1.22433701E-01  0.00000000E+00 -2.87576520E-18
  3.37195016E-18  5.01520641E-01 -4.72083398E-34 -4.72083398E-34  0.00000000E+00
  1.00000000E+00  1.42199717E-02  7.18829868E-02  5.91983936E-02  1.19892771E-01
 -2.62401455E-18  9.61001074E-02  1.22433701E-01  4.12064530E-01  0.00000000E+00
  3.56703246E-19 -4.21493770E-19 -4.72083398E-34  5.01520641E-01  5.90104247E-35
  0.00000000E+00  0.00000000E+00  1.00000000E+00  0.00000000E+00 -6.48935731E-18
 -4.26184187E-18  7.41789487E-19  1.30196472E-01  0.00000000E+00  0.00000000E+00
  0.00000000E+00  4.33374573E-01  0.00000000E+00 -2.44229206E-17 -4.72083398E-34
  5.90104247E-35  5.01520641E-01  0.00000000E+00  0.00000000E+00  0.00000000E+00
  1.00000000E+00  1.88413783E-04  7.62755369E-03  1.27469938E-02  3.49450607E-03
  4.64884933E-03  7.68109627E-02  1.81197840E-01  4.96742183E-02  6.60831465E-02
  3.03882152E-02  2.26101497E-01  1.01572558E-01  1.84845732E-01  1.64796023E-01
  4.08285841E-01  2.18966368E-01  3.98483601E-01  3.55261178E-01  1.00000000E+00
  1.71195552E-02  1.12766760E-01  7.47521802E-02  2.04928278E-02  2.72622415E-02
  2.80973968E-01  3.45352556E-01  9.46761742E-02  1.25950638E-01  6.64777392E-02
  3.68228918E-01  5.61670111E-02  1.02214934E-01  9.11279605E-02  6.67888470E-01
  1.84530388E-01  3.35815652E-01  2.99390650E-01  6.58292049E-01  1.00000000E+00
  3.03882152E-02  2.26101497E-01 -1.01572558E-01 -1.84845732E-01  1.64796023E-01
  4.08285841E-01 -2.18966368E-01 -3.98483601E-01  3.55261178E-01  1.88413783E-04
  7.62755369E-03 -1.27469938E-02 -3.49450607E-03  4.64884933E-03  7.68109627E-02
 -1.81197840E-01 -4.96742183E-02  6.60831465E-02  1.22853695E-03  4.99927153E-02
  1.00000000E+00  6.64777392E-02  3.68228918E-01 -5.61670111E-02 -1.02214934E-01
  9.11279605E-02  6.67888470E-01 -1.84530388E-01 -3.35815652E-01  2.99390650E-01
  1.71195552E-02  1.12766760E-01 -7.47521802E-02 -2.04928278E-02  2.72622415E-02
  2.80973968E-01 -3.45352556E-01 -9.46761742E-02  1.25950638E-01  4.99927153E-02
  2.04625824E-01  6.58292049E-01  1.00000000E+00
Kinetic Energy Matrix                      R   N=         253
  2.95401398E+01 -2.18540273E+00  1.71121096E+00  0.00000000E+00  0.00000000E+00
  4.25187706E+00  0.00000000E+00  0.00000000E+00  0.00000000E+00  4.25187706E+00
  0.00000000E+00  0.00000000E+00  0.00000000E+00  0.00000000E+00  4.25187706E+00
  1.31282499E-01  4.80047821E-01  0.00000000E+00  0.00000000E+00  0.00000000E+00
  4.05008700E-01  0.00000000E+00  0.00000000E+00  5.47243224E-01  0.00000000E+00
  0.00000000E+00  0.00000000E+00  6.75014500E-01  0.00000000E+00  0.00000000E+00
  0.00000000E+00  5.47243224E-01  0.00000000E+00  0.00000000E+00  0.00000000E+00
  6.75014500E-01  0.00000000E+00  0.00000000E+00  0.00000000E+00  0.00000000E+00
  5.47243224E-01  0.00000000E+00  0.00000000E+00  0.00000000E+00  6.75014500E-01
 -1.94598104E-07 -1.23042239E-02 -2.62191798E-02  4.56354612E-03  0.00000000E+00
 -2.07774169E-03  3.75919298E-02 -6.54301571E-03  0.00000000E+00  2.95401398E+01
 -1.23042239E-02 -8.00155331E-02 -6.31351115E-02  1.09889018E-02  0.00000000E+00
  1.75298549E-02  2.08824574E-01 -3.63466966E-02  0.00000000E+00 -2.18540273E+00
  1.71121096E+00  2.62191798E-02  6.31351115E-02 -2.31964439E-02 -1.24272774E-04
  0.00000000E+00 -8.29128209E-02 -2.53000390E-01  5.53630021E-02  0.00000000E+00
  0.00000000E+00  0.00000000E+00  4.25187706E+00 -4.56354612E-03 -1.09889018E-02
 -1.24272774E-04 -2.38888047E-02  0.00000000E+00  1.44312860E-02  5.53630021E-02
  5.54434197E-02  0.00000000E+00  0.00000000E+00  0.00000000E+00  0.00000000E+00
  4.25187706E+00  0.00000000E+00  0.00000000E+00  0.00000000E+00  0.00000000E+00
 -2.39104348E-02  0.00000000E+00  0.00000000E+00  0.00000000E+00  6.50795568E-02
  0.00000000E+00  0.00000000E+00  0.00000000E+00  0.00000000E+00  4.25187706E+00
 -2.07774169E-03  1.75298549E-02  8.29128209E-02 -1.44312860E-02  0.00000000E+00
  7.76791757E-02  2.48043042E-01 -4.31728174E-02  0.00000000E+00  1.31282499E-01
  4.80047821E-01  0.00000000E+00  0.00000000E+00  0.00000000E+00  4.05008700E-01
 -3.75919298E-02 -2.08824574E-01 -2.53000390E-01  5.53630021E-02  0.00000000E+00
 -2.48043042E-01 -3.11248355E-01  8.80609509E-02  0.00000000E+00  0.00000000E+00
  0.00000000E+00  5.47243224E-01  0.00000000E+00  0.00000000E+00  0.00000000E+00
  6.75014500E-01  6.54301571E-03  3.63466966E-02  5.53630021E-02  5.54434197E-02
  0.00000000E+00  4.31728174E-02  8.80609509E-02  1.79365487E-01  0.00000000E+00
  0.00000000E+00  0.00000000E+00  0.00000000E+00  5.47243224E-01  0.00000000E+00
  0.00000000E+00  0.00000000E+00  6.75014500E-01  0.00000000E+00  0.00000000E+00
  0.00000000E+00  0.00000000E+00  6.50795568E-02  0.00000000E+00  0.00000000E+00
  0.00000000E+00  1.94692824E-01  0.00000000E+00  0.00000000E+00  0.00000000E+00
  0.00000000E+00  5.47243224E-01  0.00000000E+00  0.00000000E+00  0.00000000E+00
  6.75014500E-01 -1.25584919E-03 -1.92722537E-02 -2.42428945E-02 -6.64603306E-03
 -8.84142300E-03 -2.54498380E-02  9.10934875E-03  2.49726917E-03  3.32219428E-03
 -2.35984133E-02  2.08817484E-03  7.07010345E-02  1.28664521E-01  1.14708633E-01
  1.29072363E-01  1.55726422E-01  2.83397061E-01  2.52657759E-01  1.39567828E+00
 -2.23128066E-03 -5.20419460E-03  1.67914554E-02  4.60326913E-03  6.12387107E-03
  1.58730418E-02  8.92492486E-02  2.44671055E-02  3.25493459E-02  1.98706062E-02
  1.03240445E-01  3.17188995E-02  5.77232996E-02  5.14622117E-02  1.54510295E-01
  7.99529430E-02  1.45501507E-01  1.29719358E-01  2.59735083E-01  2.41916700E-01
 -2.35984133E-02  2.08817484E-03 -7.07010345E-02 -1.28664521E-01  1.14708633E-01
  1.29072363E-01 -1.55726422E-01 -2.83397061E-01  2.52657759E-01 -1.25584919E-03
 -1.92722537E-02  2.42428945E-02  6.64603306E-03 -8.84142300E-03 -2.54498380E-02
 -9.10934875E-03 -2.49726917E-03  3.32219428E-03 -3.82834937E-03 -1.40346766E-02
  1.39567828E+00  1.98706062E-02  1.03240445E-01 -3.17188995E-02 -5.77232996E-02
  5.14622117E-02  1.54510295E-01 -7.99529430E-02 -1.45501507E-01  1.29719358E-01
 -2.23128066E-03 -5.20419460E-03 -1.67914554E-02 -4.60326913E-03  6.12387107E-03
  1.58730418E-02 -8.92492486E-02 -2.44671055E-02  3.25493459E-02 -1.40346766E-02
 -2.85702189E-03  2.59735083E-01  2.41916700E-01
Nuclear Attraction Matrix                  R   N=         253
 -6.55171636E+01 -5.86700727E+00 -1.45670317E+01 -9.01348743E-02 -6.15085388E-01
 -1.58349074E+01  2.89092617E-02  1.97033340E-01  2.22458518E-02 -1.55978284E+01
 -1.47502985E-02 -1.00452685E-01  1.45219516E-02  3.21943105E-02 -1.55828524E+01
 -5.99353670E+00 -1.01107035E+01 -5.98939940E-01  1.89363135E-01 -9.57571904E-02
 -1.06107455E+01 -1.24204230E-02 -4.08520154E-01 -5.96601315E+00  2.45515065E-02
  1.31774006E-02 -1.12118658E+00 -8.97178343E+00  3.98364408E-03  1.28829673E-01
  2.45515065E-02 -5.72133301E+00  2.99136984E-02  3.11151972E-01  1.22765282E-01
 -7.95668728E+00 -2.03256451E-03 -6.50414146E-02  1.31774006E-02  2.99136984E-02
 -5.70671820E+00 -1.46990938E-01  2.19598277E-02  7.01055363E-02 -7.91040347E+00
 -2.78325886E-08 -4.98299750E-02 -1.45718466E-01  2.53453841E-02 -2.32763545E-05
 -1.16441902E+00 -2.90880847E+00  5.05947246E-01 -3.96655211E-04 -6.55171636E+01
 -4.98299750E-02 -7.05088140E-01 -1.20097590E+00  2.09145854E-01 -2.74199849E-03
 -2.76001790E+00 -5.55510700E+00  9.57473822E-01 -1.49285991E-02 -5.86700727E+00
 -1.45670317E+01  1.45718466E-01  1.20097590E+00  1.84283980E+00 -3.74469123E-01
  4.63457709E-03  2.19182212E+00  2.88183182E+00 -7.60252813E-01  7.25399526E-03
  9.01348743E-02  6.15085388E-01 -1.58349074E+01 -2.53453841E-02 -2.09145854E-01
 -3.74469123E-01 -2.37237448E-01 -8.06665443E-04 -3.95678342E-01 -7.96393061E-01
 -1.34785834E+00 -6.26237924E-03 -2.89092617E-02 -1.97033340E-01  2.22458518E-02
 -1.55978284E+01 -2.32763545E-05 -2.74199849E-03 -4.63457709E-03  8.06665443E-04
 -3.02368653E-01 -2.15488692E-02 -4.76534941E-02  3.29447423E-03 -1.48390361E+00
 -1.47502985E-02 -1.00452685E-01 -1.45219516E-02 -3.21943105E-02 -1.55828524E+01
 -1.16441902E+00 -2.76001790E+00 -2.19182212E+00  3.95678342E-01 -2.15488692E-02
 -4.82395544E+00 -6.14582786E+00  1.06970428E+00 -5.66334136E-02 -5.99353670E+00
 -1.01107035E+01  5.98939940E-01 -1.89363135E-01 -9.57571904E-02 -1.06107455E+01
  2.90880847E+00  5.55510700E+00  2.88183182E+00 -7.96393061E-01  4.76534941E-02
  6.14582786E+00  3.12783427E+00 -1.22028887E+00  7.21522443E-02  1.24204230E-02
  4.08520154E-01 -5.96601315E+00  2.45515065E-02 -1.31774006E-02  1.12118658E+00
 -8.97178343E+00 -5.05947246E-01 -9.57473822E-01 -7.60252813E-01 -1.34785834E+00
 -3.29447423E-03 -1.06970428E+00 -1.22028887E+00 -3.40380008E+00 -1.25583674E-02
 -3.98364408E-03 -1.28829673E-01  2.45515065E-02 -5.72133301E+00 -2.99136984E-02
 -3.11151972E-01  1.22765282E-01 -7.95668728E+00 -3.96655211E-04 -1.49285991E-02
 -7.25399526E-03  6.26237924E-03 -1.48390361E+00 -5.66334136E-02 -7.21522443E-02
  1.25583674E-02 -3.61242720E+00 -2.03256451E-03 -6.50414146E-02 -1.31774006E-02
 -2.99136984E-02 -5.70671820E+00 -1.46990938E-01 -2.19598277E-02 -7.01055363E-02
 -7.91040347E+00 -5.62082391E-03 -9.02935936E-02 -1.51534448E-01 -3.39770851E-02
 -4.95207911E-02 -7.59776318E-01 -1.77298679E+00 -3.86141319E-01 -5.67510260E-01
 -1.04566770E+00 -2.73714899E+00 -1.03767401E+00 -2.08966056E+00 -1.85178511E+00
 -3.84234515E+00 -1.66721967E+00 -3.33025216E+00 -2.95322734E+00 -8.44237757E+00
 -6.00618056E-01 -1.45117845E+00 -9.68993937E-01 -1.89661890E-01 -3.10696867E-01
 -2.80447601E+00 -3.42671865E+00 -5.63691121E-01 -9.83328882E-01 -2.35258026E+00
 -4.66347132E+00 -3.37722678E-01 -1.21137896E+00 -1.04608259E+00 -6.20773495E+00
 -6.30834214E-01 -2.59793432E+00 -2.23811889E+00 -5.17243572E+00 -6.86023125E+00
 -1.04566770E+00 -2.73714899E+00  1.03767401E+00  2.08966056E+00 -1.85178511E+00
 -3.84234515E+00  1.66721967E+00  3.33025216E+00 -2.95322734E+00 -5.62082391E-03
 -9.02935936E-02  1.51534448E-01  3.39770851E-02 -4.95207911E-02 -7.59776318E-01
  1.77298679E+00  3.86141319E-01 -5.67510260E-01 -1.26119586E-02 -4.63385041E-01
 -8.44237757E+00 -2.35258026E+00 -4.66347132E+00  3.37722678E-01  1.21137896E+00
 -1.04608259E+00 -6.20773495E+00  6.30834214E-01  2.59793432E+00 -2.23811889E+00
 -6.00618056E-01 -1.45117845E+00  9.68993937E-01  1.89661890E-01 -3.10696867E-01
 -2.80447601E+00  3.42671865E+00  5.63691121E-01 -9.83328882E-01 -4.63385041E-01
 -1.76659689E+00 -5.17243572E+00 -6.86023125E+00
Core Hamiltonian Matrix                    R   N=         253
 -3.59770238E+01 -8.05241000E+00 -1.28558208E+01 -9.01348743E-02 -6.15085388E-01
 -1.15830303E+01  2.89092617E-02  1.97033340E-01  2.22458518E-02 -1.13459514E+01
 -1.47502985E-02 -1.00452685E-01  1.45219516E-02  3.21943105E-02 -1.13309753E+01
 -5.86225420E+00 -9.63065564E+00 -5.98939940E-01  1.89363135E-01 -9.57571904E-02
 -1.02057368E+01 -1.24204230E-02 -4.08520154E-01 -5.41876993E+00  2.45515065E-02
  1.31774006E-02 -1.12118658E+00 -8.29676893E+00  3.98364408E-03  1.28829673E-01
  2.45515065E-02 -5.17408978E+00  2.99136984E-02  3.11151972E-01  1.22765282E-01
 -7.28167278E+00 -2.03256451E-03 -6.50414146E-02  1.31774006E-02  2.99136984E-02
 -5.15947498E+00 -1.46990938E-01  2.19598277E-02  7.01055363E-02 -7.23538897E+00
 -2.22430692E-07 -6.21341990E-02 -1.71937646E-01  2.99089302E-02 -2.32763545E-05
 -1.16649676E+00 -2.87121654E+00  4.99404230E-01 -3.96655211E-04 -3.59770238E+01
 -6.21341990E-02 -7.85103673E-01 -1.26411101E+00  2.20134756E-01 -2.74199849E-03
 -2.74248804E+00 -5.34628243E+00  9.21127125E-01 -1.49285991E-02 -8.05241000E+00
 -1.28558208E+01  1.71937646E-01  1.26411101E+00  1.81964335E+00 -3.74593396E-01
  4.63457709E-03  2.10890930E+00  2.62883143E+00 -7.04889811E-01  7.25399526E-03
  9.01348743E-02  6.15085388E-01 -1.15830303E+01 -2.99089302E-02 -2.20134756E-01
 -3.74593396E-01 -2.61126253E-01 -8.06665443E-04 -3.81247056E-01 -7.41030059E-01
 -1.29241492E+00 -6.26237924E-03 -2.89092617E-02 -1.97033340E-01  2.22458518E-02
 -1.13459514E+01 -2.32763545E-05 -2.74199849E-03 -4.63457709E-03  8.06665443E-04
 -3.26279088E-01 -2.15488692E-02 -4.76534941E-02  3.29447423E-03 -1.41882405E+00
 -1.47502985E-02 -1.00452685E-01 -1.45219516E-02 -3.21943105E-02 -1.13309753E+01
 -1.16649676E+00 -2.74248804E+00 -2.10890930E+00  3.81247056E-01 -2.15488692E-02
 -4.74627626E+00 -5.89778481E+00  1.02653146E+00 -5.66334136E-02 -5.86225420E+00
 -9.63065564E+00  5.98939940E-01 -1.89363135E-01 -9.57571904E-02 -1.02057368E+01
  2.87121654E+00  5.34628243E+00  2.62883143E+00 -7.41030059E-01  4.76534941E-02
  5.89778481E+00  2.81658591E+00 -1.13222792E+00  7.21522443E-02  1.24204230E-02
  4.08520154E-01 -5.41876993E+00  2.45515065E-02 -1.31774006E-02  1.12118658E+00
 -8.29676893E+00 -4.99404230E-01 -9.21127125E-01 -7.04889811E-01 -1.29241492E+00
 -3.29447423E-03 -1.02653146E+00 -1.13222792E+00 -3.22443460E+00 -1.25583674E-02
 -3.98364408E-03 -1.28829673E-01  2.45515065E-02 -5.17408978E+00 -2.99136984E-02
 -3.11151972E-01  1.22765282E-01 -7.28167278E+00 -3.96655211E-04 -1.49285991E-02
 -7.25399526E-03  6.26237924E-03 -1.41882405E+00 -5.66334136E-02 -7.21522443E-02
  1.25583674E-02 -3.41773438E+00 -2.03256451E-03 -6.50414146E-02 -1.31774006E-02
 -2.99136984E-02 -5.15947498E+00 -1.46990938E-01 -2.19598277E-02 -7.01055363E-02
 -7.23538897E+00 -6.87667310E-03 -1.09565847E-01 -1.75777343E-01 -4.06231182E-02
 -5.83622141E-02 -7.85226156E-01 -1.76387745E+00 -3.83644050E-01 -5.64188066E-01
 -1.06926612E+00 -2.73506081E+00 -9.66972973E-01 -1.96099604E+00 -1.73707648E+00
 -3.71327279E+00 -1.51149325E+00 -3.04685510E+00 -2.70056958E+00 -7.04669929E+00
 -6.02849336E-01 -1.45638264E+00 -9.52202481E-01 -1.85058620E-01 -3.04572996E-01
 -2.78860296E+00 -3.33746940E+00 -5.39224016E-01 -9.50779536E-01 -2.33270966E+00
 -4.56023087E+00 -3.06003779E-01 -1.15365567E+00 -9.94620379E-01 -6.05322466E+00
 -5.50881271E-01 -2.45243281E+00 -2.10839953E+00 -4.91270064E+00 -6.61831455E+00
 -1.06926612E+00 -2.73506081E+00  9.66972973E-01  1.96099604E+00 -1.73707648E+00
 -3.71327279E+00  1.51149325E+00  3.04685510E+00 -2.70056958E+00 -6.87667310E-03
 -1.09565847E-01  1.75777343E-01  4.06231182E-02 -5.83622141E-02 -7.85226156E-01
  1.76387745E+00  3.83644050E-01 -5.64188066E-01 -1.64403079E-02 -4.77419718E-01
 -7.04669929E+00 -2.33270966E+00 -4.56023087E+00  3.06003779E-01  1.15365567E+00
 -9.94620379E-01 -6.05322466E+00  5.50881271E-01  2.45243281E+00 -2.10839953E+00
 -6.02849336E-01 -1.45638264E+00  9.52202481E-01  1.85058620E-01 -3.04572996E-01
 -2.78860296E+00  3.33746940E+00  5.39224016E-01 -9.50779536E-01 -4.77419718E-01
 -1.76945391E+00 -4.91270064E+00 -6.61831455E+00
Multipole Matrix (1,0,0)                   R   N=         253
 -1.22591557E+00 -2.86484095E-01 -1.22591557E+00  7.27077806E-02  4.96075284E-01
 -1.22591557E+00  0.00000000E+00  0.00000000E+00  0.00000000E+00 -1.22591557E+00
  0.00000000E+00  0.00000000E+00  0.00000000E+00  0.00000000E+00 -1.22591557E+00
 -2.05070862E-01 -9.36159116E-01  4.82583279E-01  0.00000000E+00  0.00000000E+00
 -1.22591557E+00  1.00190010E-02  3.29089724E-01 -6.14821964E-01  0.00000000E+00
  0.00000000E+00  9.62240114E-01 -1.22591557E+00  0.00000000E+00  0.00000000E+00
  0.00000000E+00 -6.14821964E-01  0.00000000E+00  0.00000000E+00  0.00000000E+00
 -1.22591557E+00  0.00000000E+00  0.00000000E+00  0.00000000E+00  0.00000000E+00
 -6.14821964E-01  0.00000000E+00  0.00000000E+00  0.00000000E+00 -1.22591557E+00
  1.51461294E-27  1.59020866E-03  4.61099644E-03 -7.80353150E-04  0.00000000E+00
  3.80273928E-02  9.58990831E-02 -1.63419858E-02  0.00000000E+00  1.22591557E+00
 -1.59020866E-03  0.00000000E+00  1.33595078E-02  8.86358129E-04  0.00000000E+00
  1.42451130E-01  3.68991663E-01 -4.88554239E-02  0.00000000E+00  2.86484095E-01
  1.22591557E+00  4.61099644E-03  1.33595078E-02  1.73472348E-18 -5.38657772E-03
  0.00000000E+00  1.35395839E-03  3.57155855E-02 -1.36129141E-04  0.00000000E+00
  7.27077806E-02  4.96075284E-01  1.22591557E+00 -7.80353150E-04  8.86358129E-04
  5.38657772E-03  0.00000000E+00  0.00000000E+00  2.15698368E-02  5.54252626E-02
  8.95132227E-02  0.00000000E+00  0.00000000E+00  0.00000000E+00  0.00000000E+00
  1.22591557E+00  0.00000000E+00  0.00000000E+00  0.00000000E+00  0.00000000E+00
  0.00000000E+00  0.00000000E+00  0.00000000E+00  0.00000000E+00  9.72716792E-02
  0.00000000E+00  0.00000000E+00  0.00000000E+00  0.00000000E+00  1.22591557E+00
 -3.80273928E-02 -1.42451130E-01  1.35395839E-03  2.15698368E-02  0.00000000E+00
  0.00000000E+00  4.17010398E-01  0.00000000E+00  0.00000000E+00  2.05070862E-01
  9.36159116E-01  4.82583279E-01  0.00000000E+00  0.00000000E+00  1.22591557E+00
  9.58990831E-02  3.68991663E-01 -3.57155855E-02 -5.54252626E-02  0.00000000E+00
  4.17010398E-01  0.00000000E+00 -9.24713782E-02  0.00000000E+00  1.00190010E-02
  3.29089724E-01  6.14821964E-01  0.00000000E+00  0.00000000E+00  9.62240114E-01
  1.22591557E+00 -1.63419858E-02 -4.88554239E-02  1.36129141E-04 -8.95132227E-02
  0.00000000E+00  0.00000000E+00  9.24713782E-02  0.00000000E+00  0.00000000E+00
  0.00000000E+00  0.00000000E+00  0.00000000E+00  6.14821964E-01  0.00000000E+00
  0.00000000E+00  0.00000000E+00  1.22591557E+00  0.00000000E+00  0.00000000E+00
  0.00000000E+00  0.00000000E+00 -9.72716792E-02  0.00000000E+00  0.00000000E+00
  0.00000000E+00  0.00000000E+00  0.00000000E+00  0.00000000E+00  0.00000000E+00
  0.00000000E+00  6.14821964E-01  0.00000000E+00  0.00000000E+00  0.00000000E+00
  1.22591557E+00 -1.84735542E-04  1.06786986E-04  2.87194201E-03 -7.14684565E-05
 -9.50766945E-05  8.01920745E-02  2.33175032E-01  5.24835707E-02  6.98205147E-02
  3.88191961E-02  3.45962310E-01  2.55229309E-01  2.79377952E-01  2.49074592E-01
  7.11222194E-01  5.97744869E-01  6.95821117E-01  6.20347310E-01  1.93686018E+00
 -1.99501580E-02 -8.69409889E-02  1.19046402E-02 -1.68240591E-02 -2.23815654E-02
 -1.21382810E-02  3.23604691E-01 -4.09008000E-03 -5.44115972E-03  8.23953692E-02
  4.89356262E-01  3.18851518E-01  1.34526326E-01  1.19934625E-01  9.96337418E-01
  1.07996534E+00  5.00960437E-01  4.46622633E-01  1.27501965E+00  1.93686018E+00
 -3.88191961E-02 -3.45962310E-01  2.55229309E-01  2.79377952E-01 -2.49074592E-01
 -7.11222194E-01  5.97744869E-01  6.95821117E-01 -6.20347310E-01  1.84735542E-04
 -1.06786986E-04  2.87194201E-03 -7.14684565E-05  9.50766945E-05 -8.01920745E-02
  2.33175032E-01  5.24835707E-02 -6.98205147E-02  0.00000000E+00 -5.99633005E-02
 -1.93686018E+00 -8.23953692E-02 -4.89356262E-01  3.18851518E-01  1.34526326E-01
 -1.19934625E-01 -9.96337418E-01  1.07996534E+00  5.00960437E-01 -4.46622633E-01
  1.99501580E-02  8.69409889E-02  1.19046402E-02 -1.68240591E-02  2.23815654E-02
  1.21382810E-02  3.23604691E-01 -4.09008000E-03  5.44115972E-03  5.99633005E-02
  0.00000000E+00 -1.27501965E+00 -1.93686018E+00
Multipole Matrix (0,1,0)                   R   N=         253
  2.13375182E-01  4.98636261E-02  2.13375182E-01  0.00000000E+00  0.00000000E+00
  2.13375182E-01  7.27077806E-02  4.96075284E-01  0.00000000E+00  2.13375182E-01
  0.00000000E+00  0.00000000E+00  0.00000000E+00  0.00000000E+00  2.13375182E-01
  3.56933491E-02  1.62941989E-01  0.00000000E+00  4.82583279E-01  0.00000000E+00
  2.13375182E-01  0.00000000E+00  0.00000000E+00  1.07012058E-01  0.00000000E+00
  0.00000000E+00  0.00000000E+00  2.13375182E-01  1.00190010E-02  3.29089724E-01
  0.00000000E+00  1.07012058E-01  0.00000000E+00  9.62240114E-01  0.00000000E+00
  2.13375182E-01  0.00000000E+00  0.00000000E+00  0.00000000E+00  0.00000000E+00
  1.07012058E-01  0.00000000E+00  0.00000000E+00  0.00000000E+00  2.13375182E-01
 -2.58746377E-28 -2.76781753E-04 -7.80353150E-04  2.63416118E-04  0.00000000E+00
 -6.61880967E-03 -1.63419858E-02  4.85300217E-03  0.00000000E+00 -2.13375182E-01
  2.76781753E-04  0.00000000E+00  8.86358129E-04  1.82976735E-02  0.00000000E+00
 -2.47941509E-02 -4.88554239E-02  9.68035143E-02  0.00000000E+00 -4.98636261E-02