Jobname.Temp
FOPT      R                             6-31G               
Number of atoms                            I                4
Charge                                     I                0
Multiplicity                               I                1
Number of electrons                        I               18
Number of alpha electrons                  I                9
Number of beta electrons                   I                9
Atomic numbers                             I   N=           4
           8           8           1           1
Current cartesian coordinates              R   N=          12
 -1.22596168E+00 -2.13110396E-01 -1.28360015E-01  1.22596071E+00  2.13104010E-01
 -1.28368938E-01  1.93639017E+00 -1.07935065E+00  1.02693611E+00 -1.93638244E+00
  1.07940174E+00  1.02689552E+00
Nuclear charges                            R   N=           4
  8.00000000E+00  8.00000000E+00  1.00000000E+00  1.00000000E+00
Number of basis functions                  I               22
Number of contracted shells                I               10
Number of primitive shells                 I               28
Highest angular momentum                   I                1
Largest degree of contraction              I                6
Shell types                                I   N=          10
           0          -1          -1           0          -1          -1
           0           0           0           0
Number of primitives per shell             I   N=          10
           6           3           1           6           3           1
           3           1           3           1
Shell to atom map                          I   N=          10
           1           1           1           2           2           2
           3           3           4           4
Primitive exponents                        R   N=          28
  5.48467170E+03  8.25234950E+02  1.88046960E+02  5.29645000E+01  1.68975700E+01
  5.79963530E+00  1.55396160E+01  3.59993360E+00  1.01376180E+00  2.70005800E-01
  5.48467170E+03  8.25234950E+02  1.88046960E+02  5.29645000E+01  1.68975700E+01
  5.79963530E+00  1.55396160E+01  3.59993360E+00  1.01376180E+00  2.70005800E-01
  1.87311370E+01  2.82539370E+00  6.40121700E-01  1.61277800E-01  1.87311370E+01
  2.82539370E+00  6.40121700E-01  1.61277800E-01
Contraction coefficients                   R   N=          28
  1.83109981E-03  1.39500985E-02  6.84450927E-02  2.32714275E-01  4.70192950E-01
  3.58520862E-01 -1.10777504E-01 -1.48026305E-01  1.13076704E+00  1.00000000E+00
  1.83109981E-03  1.39500985E-02  6.84450927E-02  2.32714275E-01  4.70192950E-01
  3.58520862E-01 -1.10777504E-01 -1.48026305E-01  1.13076704E+00  1.00000000E+00
  3.34945995E-02  2.34726947E-01  8.13757318E-01  1.00000000E+00  3.34945995E-02
  2.34726947E-01  8.13757318E-01  1.00000000E+00
P(S=P) Contraction coefficients            R   N=          28
  0.00000000E+00  0.00000000E+00  0.00000000E+00  0.00000000E+00  0.00000000E+00
  0.00000000E+00  7.08742995E-02  3.39752798E-01  7.27158595E-01  1.00000000E+00
  0.00000000E+00  0.00000000E+00  0.00000000E+00  0.00000000E+00  0.00000000E+00
  0.00000000E+00  7.08742995E-02  3.39752798E-01  7.27158595E-01  1.00000000E+00
  0.00000000E+00  0.00000000E+00  0.00000000E+00  0.00000000E+00  0.00000000E+00
  0.00000000E+00  0.00000000E+00  0.00000000E+00
Coordinates of each shell                  R   N=          30
 -1.22596168E+00 -2.13110396E-01 -1.28360015E-01 -1.22596168E+00 -2.13110396E-01
 -1.28360015E-01 -1.22596168E+00 -2.13110396E-01 -1.28360015E-01  1.22596071E+00
  2.13104010E-01 -1.28368938E-01  1.22596071E+00  2.13104010E-01 -1.28368938E-01
  1.22596071E+00  2.13104010E-01 -1.28368938E-01  1.93639017E+00 -1.07935065E+00
  1.02693611E+00  1.93639017E+00 -1.07935065E+00  1.02693611E+00 -1.93638244E+00
  1.07940174E+00  1.02689552E+00 -1.93638244E+00  1.07940174E+00  1.02689552E+00
Current cartesian coordinates              R   N=          12
 -1.22596168E+00 -2.13110396E-01 -1.28360015E-01  1.22596071E+00  2.13104010E-01
 -1.28368938E-01  1.93639017E+00 -1.07935065E+00  1.02693611E+00 -1.93638244E+00
  1.07940174E+00  1.02689552E+00
Orthonormalization Matrix                  R   N=         253
  1.36133486E-02 -4.96457893E-02 -1.18005834E-03 -5.99473312E-03 -2.12210428E-03
  5.99431508E-03 -3.80737882E-02 -1.48686511E-02 -1.35605115E-03 -7.52352732E-04
  7.05667427E-01  1.50044954E-02 -2.61939134E-03 -1.76227827E-02  1.12582860E+00
  4.86704853E-03  2.57434509E-02 -2.95208794E-01 -2.95516526E-01  8.25863639E-03
  3.06384528E-01  7.30738711E-03 -9.36521049E-02 -3.67264477E-03 -5.86946096E-03
  5.92584357E-02 -3.30188291E-01 -1.26179570E-01  2.57437725E-02 -9.10811861E-04
  2.05926040E-04  1.14192624E-03 -5.48060031E-04  7.34042739E-02 -2.26742518E-03
  1.48097534E-01  4.64277648E-04  9.75956762E-03 -2.78202906E-03  3.12346686E-02
  7.34042739E-02 -9.75985487E-03 -3.33706670E-01 -2.10279770E-02  3.73373776E-04
 -9.75985487E-03 -1.54418490E-02  2.45858525E-03  9.77070688E-04 -2.43609170E-02
  1.78351231E-02  3.45089989E-03  5.83907658E-03 -2.88170940E-03  3.49513576E-03
  2.49220667E-03 -1.07336546E-01  1.55394497E+00 -1.56706167E-02 -1.76227827E-02
 -1.35524915E-01 -7.45422601E-02 -6.88647338E-03 -3.29424374E-01  5.80110118E-02
 -7.52436257E-04  2.26672355E-03  1.40011058E-02 -1.03006878E+00  1.26178446E-01
  1.12557935E-01  1.38080656E+00 -2.61939134E-03  2.65172312E-03 -2.49683818E-01
 -1.03006866E+00  1.13388252E+00  2.88186233E-03  2.50869803E-02 -7.78624018E-02
  5.66010642E-02  1.38374821E-01 -1.31952806E-02  7.52282362E-03  8.90999258E-03
 -1.07336546E-01 -4.96458476E-02 -3.95400952E-02  4.23848323E-02 -2.74026354E-02
 -7.30713197E-03  8.77313190E-03  5.17723106E-02 -7.52282999E-03 -3.12347343E-02
  1.32464027E-02  1.36133609E-02  3.83728453E-04  4.80883536E-03 -3.67264477E-03
  3.21270986E+00 -1.53184934E-04  2.57434509E-02 -5.48060031E-04 -2.12210428E-03
 -3.95400952E-02 -2.45873746E-03 -2.65140695E-03 -3.00858453E-01 -1.58701148E-02
  2.03510004E-02 -1.53184934E-04  1.04662877E+00  1.20898056E-01  1.12582900E+00
  1.87980022E-02  1.48097748E-01  4.72935742E-02 -7.78577380E-02  4.61802373E-01
 -7.52436257E-04  1.72909348E-01  1.21799078E-02 -1.62890339E-02 -1.72250463E-02
 -6.25853177E-01 -3.44014005E-01  7.05667427E-01 -9.36521049E-02  1.35606111E-03
  3.06384528E-01  1.14192624E-03  2.50870856E-02 -3.13414588E-01 -2.31664352E-01
 -1.22699111E-02  2.61927602E-03  3.83712785E-04  2.03510004E-02  1.02282121E+00
  4.64291537E-04  3.19929980E-02 -1.04662770E+00  1.62824419E-02  4.59689856E-02
  1.50044529E-02 -2.85532906E-01  1.35606111E-03  3.73373776E-04 -7.07863598E-04
  8.90999258E-03  1.50044954E-02  7.35958670E-01  1.40003699E-02 -6.88691042E-03
  3.49515059E-03  7.30738711E-03 -1.02478364E-02 -1.12561634E-01 -1.47935299E-02
  1.44049481E+00 -1.02478364E-02  6.78619638E-02  1.22698180E-02  4.62464465E-03
  1.22059050E-02  1.89027744E-01  3.49462682E-01  3.31537803E-03  4.61802373E-01
  1.72909348E-01  2.03510207E-02 -1.58701148E-02  1.52539511E-04 -2.66264021E-02
  1.12412373E+00  5.66022421E-02 -3.44014005E-01  1.80485933E-02  5.48091704E-04
  1.14192177E-03 -3.80737882E-02 -1.47935299E-02  2.05926040E-04 -1.18005834E-03
  1.02472840E-02  1.13388240E+00  3.12346686E-02  1.48682716E-02 -3.73346171E-04
 -1.35605115E-03  7.07864926E-04  8.25863639E-03  1.87972538E-02 -2.12214367E-03
  1.56707599E-02 -1.26179570E-01  1.22059050E-02  1.89028533E-01 -9.10811861E-04
 -3.67303588E-03 -2.12214367E-03  1.32464027E-02  2.74025117E-02  4.62459880E-03
  1.76234476E-02 -1.12561634E-01 -3.12347343E-02  4.64277648E-04 -1.07336539E-01
 -2.78202124E-03  1.28721836E-02 -3.29424374E-01  4.80883536E-03  1.91797767E-04
 -7.34045885E-02  1.56707599E-02  7.52282362E-03 -1.21805260E-02  2.05990259E-04
 -3.33706670E-01 -1.91818843E-04 -2.02322178E-02  4.86704853E-03  5.17721021E-02
 -5.99473312E-03  1.18006736E-03 -4.23840322E-02 -6.88647338E-03 -1.22699111E-02
 -8.90999249E-03  3.83728453E-04 -1.31955747E-02 -2.88170940E-03 -7.52352732E-04
  2.55153650E-02 -1.07336539E-01  1.40003699E-02 -7.78577380E-02 -7.30713197E-03
 -7.52282999E-03  1.38373861E-01  3.31537803E-03  3.19930174E-02  1.76234476E-02
  1.55394500E+00 -1.03006866E+00  3.83712785E-04  4.80919403E-03 -4.96457893E-02
  7.07864926E-04  5.48091704E-04  1.02282121E+00
Overlap Matrix                             R   N=         253
  1.00000000E+00  2.33689906E-01  1.00000000E+00  4.41998993E-17  2.07705892E-16
  1.00000000E+00 -2.20186496E-17 -8.65397961E-18  2.78633166E-33  1.00000000E+00
  9.65204013E-18  2.59597747E-17  1.75360698E-32  0.00000000E+00  1.00000000E+00
  1.67279760E-01  7.63640773E-01  1.63663542E-17  0.00000000E+00 -2.99071120E-17
  1.00000000E+00 -2.19061437E-17 -3.37195016E-18  5.01520641E-01  0.00000000E+00
  0.00000000E+00  0.00000000E+00  1.00000000E+00 -4.38061557E-18  0.00000000E+00
  0.00000000E+00  5.01520641E-01  0.00000000E+00  0.00000000E+00  0.00000000E+00
  1.00000000E+00  3.59470650E-19 -2.40014269E-17  0.00000000E+00  0.00000000E+00
  5.01520641E-01  0.00000000E+00  0.00000000E+00  0.00000000E+00  1.00000000E+00
  2.03765290E-09  1.69660179E-03  4.75362665E-03  8.26316596E-04 -1.73003849E-08
  3.31071098E-02  8.17019946E-02  1.42021490E-02 -2.97346860E-07  1.00000000E+00
  1.69660179E-03  5.32665271E-02  8.97362816E-02  1.55987385E-02 -3.26586905E-07
  2.07965299E-01  4.13009290E-01  7.17928555E-02 -1.50310915E-06  2.33689906E-01
  1.00000000E+00 -4.75362665E-03 -8.97362816E-02 -1.36732318E-01 -2.81562604E-02
  5.89500617E-07 -1.65879761E-01 -2.09944910E-01 -5.91263718E-02  1.23791413E-06
 -4.07528903E-17 -1.73076126E-16  1.00000000E+00 -8.26316596E-04 -1.55987385E-02
 -2.81562604E-02  2.03503970E-02  1.02472108E-07 -2.88346582E-02 -5.91263718E-02
  1.19918889E-01  2.15184967E-07 -9.91184180E-18 -2.16345158E-17  2.36715444E-32
  1.00000000E+00  1.73003849E-08  3.26586905E-07  5.89500617E-07  1.02472108E-07
  2.52447622E-02  6.03704063E-07  1.23791413E-06  2.15184967E-07  1.30196748E-01
  1.29410913E-17 -4.32525894E-18 -6.13547459E-33 -7.66934324E-34  1.00000000E+00
  3.31071098E-02  2.07965299E-01  1.65879761E-01  2.88346582E-02 -6.03704063E-07
  4.33375143E-01  5.52150237E-01  9.59795412E-02 -2.00949977E-06  1.67279760E-01
  7.63640773E-01 -1.20482946E-16 -2.04579428E-18  0.00000000E+00  1.00000000E+00
 -8.17019946E-02 -4.13009290E-01 -2.09944910E-01 -5.91263718E-02  1.23791413E-06
 -5.52150237E-01 -2.70102870E-01 -1.22284647E-01  2.56024323E-06  0.00000000E+00
  1.57951966E-17  5.01520641E-01  4.72083398E-34  0.00000000E+00  0.00000000E+00
  1.00000000E+00 -1.42021490E-02 -7.17928555E-02 -5.91263718E-02  1.19918889E-01
  2.15184967E-07 -9.59795412E-02 -1.22284647E-01  4.12118566E-01  4.45043674E-07
  4.11007244E-20  4.21493770E-19  4.72083398E-34  5.01520641E-01  0.00000000E+00
  0.00000000E+00  0.00000000E+00  1.00000000E+00  2.97346860E-07  1.50310915E-06
  1.23791413E-06  2.15184967E-07  1.30196748E-01  2.00949977E-06  2.56024323E-06
  4.45043674E-07  4.33375143E-01  0.00000000E+00  0.00000000E+00  0.00000000E+00
  0.00000000E+00  5.01520641E-01  0.00000000E+00  0.00000000E+00  0.00000000E+00
  1.00000000E+00  1.88399916E-04  7.62718173E-03  1.27446501E-02 -3.49105018E-03
  4.65597933E-03  7.68091073E-02  1.81169153E-01 -4.96263610E-02  6.61861901E-02
  3.03879668E-02  2.26100239E-01  1.01498334E-01 -1.84651683E-01  1.65057256E-01
  4.08284750E-01  2.18807117E-01 -3.98066657E-01  3.55825570E-01  1.00000000E+00
  1.71192176E-02  1.12764819E-01  7.47408509E-02 -2.04732229E-02  2.73049362E-02
  2.80970432E-01  3.45301922E-01 -9.45860678E-02  1.26148509E-01  6.64775958E-02
  3.68228225E-01  5.61262051E-02 -1.02108063E-01  9.12728032E-02  6.67887550E-01
  1.84396425E-01 -3.35464721E-01  2.99866677E-01  6.58292049E-01  1.00000000E+00
  3.03875694E-02  2.26098226E-01 -1.01496090E-01  1.84658072E-01  1.65048554E-01
  4.08283004E-01 -2.18803496E-01  3.98082643E-01  3.55808787E-01  1.88403093E-04
  7.62726695E-03 -1.27447606E-02  3.49132168E-03  4.65590489E-03  7.68095324E-02
 -1.81169663E-01  4.96299299E-02  6.61847444E-02  1.23505029E-03  5.01001717E-02
  1.00000000E+00  6.64773663E-02  3.68227117E-01 -5.61253459E-02  1.02112290E-01
  9.12686112E-02  6.67886078E-01 -1.84393763E-01  3.35478900E-01  2.99853165E-01
  1.71192950E-02  1.12765263E-01 -7.47409457E-02  2.04746635E-02  2.73042975E-02
  2.80971242E-01 -3.45301968E-01  9.45926164E-02  1.26145416E-01  5.01001717E-02
  2.04897335E-01  6.58292049E-01  1.00000000E+00
Kinetic Energy Matrix                      R   N=         253
  2.95401398E+01 -2.18540273E+00  1.71121096E+00  0.00000000E+00  0.00000000E+00
  4.25187706E+00  0.00000000E+00  0.00000000E+00  0.00000000E+00  4.25187706E+00
  0.00000000E+00  0.00000000E+00  0.00000000E+00  0.00000000E+00  4.25187706E+00
  1.31282499E-01  4.80047821E-01  0.00000000E+00  0.00000000E+00  0.00000000E+00
  4.05008700E-01  0.00000000E+00  0.00000000E+00  5.47243224E-01  0.00000000E+00
  0.00000000E+00  0.00000000E+00  6.75014500E-01  0.00000000E+00  0.00000000E+00
  0.00000000E+00  5.47243224E-01  0.00000000E+00  0.00000000E+00  0.00000000E+00
  6.75014500E-01  0.00000000E+00  0.00000000E+00  0.00000000E+00  0.00000000E+00
  5.47243224E-01  0.00000000E+00  0.00000000E+00  0.00000000E+00  6.75014500E-01
 -1.94603270E-07 -1.23043053E-02 -2.62203122E-02 -4.55784199E-03  9.54264034E-08
 -2.07770288E-03  3.75935335E-02  6.53483391E-03 -1.36818191E-07  2.95401398E+01
 -1.23043053E-02 -8.00156419E-02 -6.31373253E-02 -1.09750773E-02  2.29782461E-07
  1.75300705E-02  2.08833126E-01  3.63011844E-02 -7.60028864E-07 -2.18540273E+00
  1.71121096E+00  2.62203122E-02  6.31373253E-02 -2.31972079E-02  1.23979390E-04
 -2.59572563E-09 -8.29162347E-02 -2.53024798E-01 -5.52957016E-02  1.15771234E-06
  0.00000000E+00  0.00000000E+00  4.25187706E+00  4.55784199E-03  1.09750773E-02
  1.23979390E-04 -2.38888842E-02 -4.51211534E-10 -1.44132188E-02 -5.52957016E-02
  5.54678364E-02  2.01243596E-07  0.00000000E+00  0.00000000E+00  0.00000000E+00
  4.25187706E+00 -9.54264034E-08 -2.29782461E-07 -2.59572563E-09 -4.51211533E-10
 -2.39104354E-02  3.01765975E-07  1.15771234E-06  2.01243596E-07  6.50798146E-02
  0.00000000E+00  0.00000000E+00  0.00000000E+00  0.00000000E+00  4.25187706E+00
 -2.07770288E-03  1.75300705E-02  8.29162347E-02  1.44132188E-02 -3.01765975E-07
  7.76794318E-02  2.48052795E-01  4.31186873E-02 -9.02765225E-07  1.31282499E-01
  4.80047821E-01  0.00000000E+00  0.00000000E+00  0.00000000E+00  4.05008700E-01
 -3.75935335E-02 -2.08833126E-01 -2.53024798E-01 -5.52957016E-02  1.15771234E-06
 -2.48052795E-01 -3.11286516E-01 -8.79537868E-02  1.84146655E-06  0.00000000E+00
  0.00000000E+00  5.47243224E-01  0.00000000E+00  0.00000000E+00  0.00000000E+00
  6.75014500E-01 -6.53483391E-03 -3.63011844E-02 -5.52957016E-02  5.54678364E-02
  2.01243596E-07 -4.31186873E-02 -8.79537868E-02  1.79404344E-01  3.20099680E-07
  0.00000000E+00  0.00000000E+00  0.00000000E+00  5.47243224E-01  0.00000000E+00
  0.00000000E+00  0.00000000E+00  6.75014500E-01  1.36818191E-07  7.60028864E-07
  1.15771234E-06  2.01243596E-07  6.50798146E-02  9.02765225E-07  1.84146655E-06
  3.20099680E-07  1.94693234E-01  0.00000000E+00  0.00000000E+00  0.00000000E+00
  0.00000000E+00  5.47243224E-01  0.00000000E+00  0.00000000E+00  0.00000000E+00
  6.75014500E-01 -1.25577290E-03 -1.92716022E-02 -2.42389006E-02  6.63958743E-03
 -8.85515252E-03 -2.54499313E-02  9.10621261E-03 -2.49439922E-03  3.32675573E-03
 -2.35984781E-02  2.08718924E-03  7.06488687E-02 -1.28528539E-01  1.14889654E-01
  1.29071587E-01  1.55612926E-01 -2.83100103E-01  2.53058762E-01  1.39567828E+00
 -2.23134345E-03 -5.20464160E-03  1.67885421E-02 -4.59876438E-03  6.13332687E-03
  1.58721279E-02  8.92352858E-02 -2.44435790E-02  3.26001611E-02  1.98705179E-02
  1.03240060E-01  3.16958249E-02 -5.76628915E-02  5.15439584E-02  1.54509896E-01
  7.98948483E-02 -1.45349364E-01  1.29925527E-01  2.59735083E-01  2.41916700E-01
 -2.35985818E-02  2.08561187E-03 -7.06465058E-02  1.28531528E-01  1.14882294E-01
  1.29070345E-01 -1.55609971E-01  2.83110781E-01  2.53046208E-01 -1.25579038E-03
 -1.92717514E-02  2.42390046E-02 -6.64007470E-03 -8.85497215E-03 -2.54499099E-02
 -9.10662637E-03  2.49468493E-03  3.32682485E-03 -3.84461963E-03 -1.40369467E-02
  1.39567828E+00  1.98703767E-02  1.03239445E-01 -3.16952909E-02  5.76651899E-02
  5.15415119E-02  1.54509259E-01 -7.98936127E-02  1.45355358E-01  1.29919539E-01
 -2.23132906E-03 -5.20453919E-03 -1.67886478E-02  4.59911111E-03  6.13321425E-03
  1.58723373E-02 -8.92354989E-02  2.44453264E-02  3.25994351E-02 -1.40369467E-02
 -2.81699508E-03  2.59735083E-01  2.41916700E-01
Nuclear Attraction Matrix                  R   N=         253
 -6.55171619E+01 -5.86700689E+00 -1.45670301E+01 -9.01436286E-02 -6.15145023E-01
 -1.58349066E+01 -2.88759959E-02 -1.96806600E-01 -2.22296613E-02 -1.55977304E+01
 -1.47726475E-02 -1.00604896E-01  1.45319363E-02 -3.22108880E-02 -1.55829463E+01
 -5.99353643E+00 -1.01107023E+01 -5.98996964E-01 -1.89145017E-01 -9.59023297E-02
 -1.06107444E+01 -1.24216293E-02 -4.08558909E-01 -5.96601473E+00 -2.45316850E-02
  1.31863357E-02 -1.12127528E+00 -8.97181074E+00 -3.97906012E-03 -1.28681254E-01
 -2.45316850E-02 -5.72124051E+00 -2.99291762E-02 -3.10789159E-01 -1.22638973E-01
 -7.95642861E+00 -2.03564416E-03 -6.51400043E-02  1.31863357E-02 -2.99291762E-02
 -5.70680699E+00 -1.47213905E-01  2.19690015E-02 -7.01419935E-02 -7.91063281E+00
 -2.78333866E-08 -4.98304285E-02 -1.45725213E-01 -2.53137809E-02 -2.27828081E-05
 -1.16442203E+00 -2.90892410E+00 -5.05313070E-01 -3.86695460E-04 -6.55171639E+01
 -4.98304262E-02 -7.05091736E-01 -1.20102700E+00 -2.08884384E-01 -2.74189769E-03
 -2.76002370E+00 -5.55532142E+00 -9.56271744E-01 -1.49318320E-02 -5.86700735E+00
 -1.45670321E+01  1.45725206E-01  1.20102699E+00  1.84301080E+00  3.74014982E-01
  4.63414209E-03  2.19191436E+00  2.88217804E+00  7.59327702E-01  7.25160653E-03
  9.01434636E-02  6.15143904E-01 -1.58349088E+01  2.53137786E-02  2.08884247E-01
  3.74014755E-01 -2.37401200E-01  8.05544554E-04  3.95184688E-01  7.95427536E-01
 -1.34819088E+00  6.26243021E-03  2.88753889E-02  1.96802457E-01 -2.22298156E-02
 -1.55977295E+01 -2.38427193E-05 -2.75064469E-03 -4.64980339E-03 -8.08271338E-04
 -3.02371822E-01 -2.15907210E-02 -4.77442429E-02 -3.29729376E-03 -1.48392397E+00
 -1.47739399E-02 -1.00613696E-01 -1.45314062E-02  3.22116231E-02 -1.55829510E+01
 -1.16442197E+00 -2.76002351E+00 -2.19191438E+00 -3.95185671E-01 -2.15741341E-02
 -4.82396156E+00 -6.14606454E+00 -1.06836362E+00 -5.66992428E-02 -5.99353676E+00
 -1.01107037E+01  5.98995931E-01  1.89141012E-01 -9.59107360E-02 -1.06107459E+01
  2.90892395E+00  5.55532092E+00  2.88217821E+00  7.95429629E-01  4.77108150E-02
  6.14606418E+00  3.12837835E+00  1.21880400E+00  7.22417906E-02  1.24216066E-02
  4.08558212E-01 -5.96601587E+00 -2.45318477E-02 -1.31856458E-02  1.12127402E+00
 -8.97181245E+00  5.05313027E-01  9.56270972E-01  7.59327306E-01 -1.34819092E+00
  3.29155883E-03  1.06836076E+00  1.21880044E+00 -3.40427713E+00  1.25576122E-02
  3.97897648E-03  1.28678525E-01 -2.45318477E-02 -5.72123873E+00  2.99298254E-02
  3.10782507E-01 -1.22639118E-01 -7.95642316E+00 -4.07852806E-04 -1.49718527E-02
 -7.28342311E-03 -6.26814782E-03 -1.48392374E+00 -5.67439788E-02 -7.22928066E-02
 -1.25666445E-02 -3.61250941E+00 -2.03582225E-03 -6.51457162E-02 -1.31856458E-02
  2.99298254E-02 -5.70681040E+00 -1.47227295E-01 -2.19643761E-02  7.01435193E-02
 -7.91063963E+00 -5.62041355E-03 -9.02905897E-02 -1.51511513E-01  3.39445669E-02
 -4.95976528E-02 -7.59768144E-01 -1.77276502E+00  3.85784871E-01 -5.68403097E-01
 -1.04565928E+00 -2.73714460E+00 -1.03683992E+00  2.08746960E+00 -1.85472913E+00
 -3.84236202E+00 -1.66589942E+00  3.32678428E+00 -2.95794596E+00 -8.44245184E+00
 -6.00606499E-01 -1.45116819E+00 -9.68879395E-01  1.89483534E-01 -3.11191375E-01
 -2.80448511E+00 -3.42638470E+00  5.63184473E-01 -9.84902599E-01 -2.35257537E+00
 -4.66347052E+00 -3.37246494E-01  1.21010136E+00 -1.04774892E+00 -6.20775898E+00
 -6.29803424E-01  2.59519547E+00 -2.24170176E+00 -5.17248514E+00 -6.86030976E+00
 -1.04564519E+00 -2.73711832E+00  1.03681451E+00 -2.08753974E+00 -1.85462937E+00
 -3.84234172E+00  1.66586834E+00 -3.32691521E+00 -2.95780391E+00 -5.62051119E-03
 -9.02915173E-02  1.51512658E-01 -3.39474276E-02 -4.95969692E-02 -7.59770920E-01
  1.77276692E+00 -3.85815227E-01 -5.68391785E-01 -1.26713717E-02 -4.64254275E-01
 -8.44244154E+00 -2.35256707E+00 -4.66345592E+00  3.37236907E-01 -1.21014925E+00
 -1.04769861E+00 -6.20774510E+00  6.29783372E-01 -2.59530141E+00 -2.24159676E+00
 -6.00609262E-01 -1.45117389E+00  9.68880656E-01 -1.89499780E-01 -3.11185921E-01
 -2.80449199E+00  3.42638394E+00 -5.63235393E-01 -9.84885458E-01 -4.64255011E-01
 -1.76843286E+00 -5.17247921E+00 -6.86030596E+00
Core Hamiltonian Matrix                    R   N=         253
 -3.59770221E+01 -8.05240962E+00 -1.28558191E+01 -9.01436286E-02 -6.15145023E-01
 -1.15830296E+01 -2.88759959E-02 -1.96806600E-01 -2.22296613E-02 -1.13458533E+01
 -1.47726475E-02 -1.00604896E-01  1.45319363E-02 -3.22108880E-02 -1.13310692E+01
 -5.86225393E+00 -9.63065444E+00 -5.98996964E-01 -1.89145017E-01 -9.59023297E-02
 -1.02057357E+01 -1.24216293E-02 -4.08558909E-01 -5.41877151E+00 -2.45316850E-02
  1.31863357E-02 -1.12127528E+00 -8.29679624E+00 -3.97906012E-03 -1.28681254E-01
 -2.45316850E-02 -5.17399729E+00 -2.99291762E-02 -3.10789159E-01 -1.22638973E-01
 -7.28141411E+00 -2.03564416E-03 -6.51400043E-02  1.31863357E-02 -2.99291762E-02
 -5.15956377E+00 -1.47213905E-01  2.19690015E-02 -7.01419935E-02 -7.23561831E+00
 -2.22436657E-07 -6.21347339E-02 -1.71945525E-01 -2.98716228E-02 -2.26873817E-05
 -1.16649973E+00 -2.87133057E+00 -4.98778236E-01 -3.86832278E-04 -3.59770241E+01
 -6.21347315E-02 -7.85107378E-01 -1.26416432E+00 -2.19859462E-01 -2.74166791E-03
 -2.74249363E+00 -5.34648829E+00 -9.19970560E-01 -1.49325920E-02 -8.05241008E+00
 -1.28558211E+01  1.71945518E-01  1.26416431E+00  1.81981359E+00  3.74138962E-01
  4.63413949E-03  2.10899812E+00  2.62915324E+00  7.04032001E-01  7.25276424E-03
  9.01434636E-02  6.15143904E-01 -1.15830318E+01  2.98716206E-02  2.19859324E-01
  3.74138734E-01 -2.61290084E-01  8.05544103E-04  3.80771469E-01  7.40131834E-01
 -1.29272305E+00  6.26263145E-03  2.88753889E-02  1.96802457E-01 -2.22298156E-02
 -1.13458524E+01 -2.39381457E-05 -2.75087447E-03 -4.64980598E-03 -8.08271789E-04
 -3.26282257E-01 -2.15904192E-02 -4.77430852E-02 -3.29709251E-03 -1.41884415E+00
 -1.47739399E-02 -1.00613696E-01 -1.45314062E-02  3.22116231E-02 -1.13310739E+01
 -1.16649967E+00 -2.74249344E+00 -2.10899815E+00 -3.80772452E-01 -2.15744359E-02
 -4.74628213E+00 -5.89801175E+00 -1.02524493E+00 -5.67001455E-02 -5.86225426E+00
 -9.63065593E+00  5.98995931E-01  1.89141012E-01 -9.59107360E-02 -1.02057372E+01
  2.87133041E+00  5.34648780E+00  2.62915341E+00  7.40133928E-01  4.77119727E-02
  5.89801138E+00  2.81709183E+00  1.13085022E+00  7.22436321E-02  1.24216066E-02
  4.08558212E-01 -5.41877265E+00 -2.45318477E-02 -1.31856458E-02  1.12127402E+00
 -8.29679795E+00  4.98778194E-01  9.19969787E-01  7.04031604E-01 -1.29272308E+00
  3.29176007E-03  1.02524208E+00  1.13084666E+00 -3.22487278E+00  1.25579323E-02
  3.97897648E-03  1.28678525E-01 -2.45318477E-02 -5.17399551E+00  2.99298254E-02
  3.10782507E-01 -1.22639118E-01 -7.28140866E+00 -4.07715988E-04 -1.49710927E-02
 -7.28226540E-03 -6.26794658E-03 -1.41884392E+00 -5.67430761E-02 -7.22909651E-02
 -1.25663244E-02 -3.41781617E+00 -2.03582225E-03 -6.51457162E-02 -1.31856458E-02
  2.99298254E-02 -5.15956718E+00 -1.47227295E-01 -2.19643761E-02  7.01435193E-02
 -7.23562513E+00 -6.87618645E-03 -1.09562192E-01 -1.75750414E-01  4.05841543E-02
 -5.84528054E-02 -7.85218075E-01 -1.76365881E+00  3.83290472E-01 -5.65076341E-01
 -1.06925776E+00 -2.73505741E+00 -9.66191052E-01  1.95894106E+00 -1.73983947E+00
 -3.71329043E+00 -1.51028649E+00  3.04368418E+00 -2.70488720E+00 -7.04677356E+00
 -6.02837842E-01 -1.45637283E+00 -9.52090853E-01  1.84884770E-01 -3.05058048E-01
 -2.78861298E+00 -3.33714942E+00  5.38740894E-01 -9.52302438E-01 -2.33270486E+00
 -4.56023046E+00 -3.05550670E-01  1.15243847E+00 -9.96204961E-01 -6.05324909E+00
 -5.49908575E-01  2.44984611E+00 -2.11177623E+00 -4.91275006E+00 -6.61839306E+00
 -1.06924377E+00 -2.73503271E+00  9.66168007E-01 -1.95900821E+00 -1.73974708E+00
 -3.71327138E+00  1.51025836E+00 -3.04380443E+00 -2.70475770E+00 -6.87630157E-03
 -1.09563269E-01  1.75751663E-01 -4.05875023E-02 -5.84519413E-02 -7.85220830E-01
  1.76366029E+00 -3.83320542E-01 -5.65064960E-01 -1.65159914E-02 -4.78291221E-01
 -7.04676326E+00 -2.33269669E+00 -4.56021647E+00  3.05541616E-01 -1.15248406E+00
 -9.96157100E-01 -6.05323585E+00  5.49889759E-01 -2.44994606E+00 -2.11167722E+00
 -6.02840591E-01 -1.45637843E+00  9.52092008E-01 -1.84900669E-01 -3.05052707E-01
 -2.78861965E+00  3.33714844E+00 -5.38790066E-01 -9.52286023E-01 -4.78291958E-01
 -1.77124985E+00 -4.91274413E+00 -6.61838926E+00
Multipole Matrix (1,0,0)                   R   N=         253
 -1.22596168E+00 -2.86494869E-01 -1.22596168E+00  7.27077806E-02  4.96075284E-01
 -1.22596168E+00  0.00000000E+00  0.00000000E+00  0.00000000E+00 -1.22596168E+00
  0.00000000E+00  0.00000000E+00  0.00000000E+00  0.00000000E+00 -1.22596168E+00
 -2.05078574E-01 -9.36194322E-01  4.82583279E-01  0.00000000E+00  0.00000000E+00
 -1.22596168E+00  1.00190010E-02  3.29089724E-01 -6.14845085E-01  0.00000000E+00
  0.00000000E+00  9.62240114E-01 -1.22596168E+00  0.00000000E+00  0.00000000E+00
  0.00000000E+00 -6.14845085E-01  0.00000000E+00  0.00000000E+00  0.00000000E+00
 -1.22596168E+00  0.00000000E+00  0.00000000E+00  0.00000000E+00  0.00000000E+00
 -6.14845085E-01  0.00000000E+00  0.00000000E+00  0.00000000E+00 -1.22596168E+00
 -9.84013244E-16  1.59028096E-03  4.61136836E-03  7.79408562E-04 -1.63182831E-08
  3.80288888E-02  9.59062760E-02  1.63221040E-02 -3.41731829E-07  1.22596071E+00
 -1.59028260E-03 -2.57232160E-08  1.33591388E-02 -8.85292372E-04  1.85351461E-08
  1.42456620E-01  3.69013106E-01  4.87959460E-02 -1.02162858E-06  2.86494643E-01
  1.22596071E+00  4.61137296E-03  1.33592254E-02  6.60301157E-08  5.37985427E-03
 -1.12636670E-07  1.34481597E-03  3.56980288E-02  1.32672805E-04 -2.77773750E-09
  7.27077806E-02  4.96075284E-01  1.22596071E+00  7.79409360E-04 -8.85277306E-04
 -5.37982708E-03 -9.82751615E-09 -4.94853754E-14 -2.15435809E-02 -5.53590567E-02
  8.95361629E-02  1.62035393E-07  0.00000000E+00  0.00000000E+00  0.00000000E+00
  1.22596071E+00 -1.63182998E-08  1.85348306E-08  1.12636101E-07 -4.94853030E-14
 -1.21910796E-08  4.51052591E-07  1.15903879E-06  1.62035393E-07  9.72754436E-02
  0.00000000E+00  0.00000000E+00  0.00000000E+00  0.00000000E+00  1.22596071E+00
 -3.80289208E-02 -1.42456821E-01  1.34465575E-03 -2.15436087E-02  4.51053174E-07
 -2.09283447E-07  4.17010680E-01 -4.63499800E-08  9.70417996E-13  2.05078413E-01
  9.36193584E-01  4.82583279E-01  0.00000000E+00  0.00000000E+00  1.22596071E+00
  9.59063549E-02  3.69013505E-01 -3.56978261E-02  5.53591138E-02 -1.15903999E-06
  4.17011214E-01  1.30436783E-07  9.23554237E-02 -1.93362252E-06  1.00190010E-02
  3.29089724E-01  6.14844601E-01  0.00000000E+00  0.00000000E+00  9.62240114E-01
  1.22596071E+00  1.63221177E-02  4.87960154E-02 -1.32615699E-04 -8.95362787E-02
 -1.62035601E-07  4.63499800E-08 -9.23553056E-02 -1.99018322E-07 -2.14918358E-13
  0.00000000E+00  0.00000000E+00  0.00000000E+00  6.14844601E-01  0.00000000E+00
  0.00000000E+00  0.00000000E+00  1.22596071E+00 -3.41732117E-07 -1.02163003E-06
  2.77654189E-09 -1.62035601E-07 -9.72755693E-02 -9.70417996E-13  1.93362005E-06
 -2.14918358E-13 -2.09283447E-07  0.00000000E+00  0.00000000E+00  0.00000000E+00
  0.00000000E+00  6.14844601E-01  0.00000000E+00  0.00000000E+00  0.00000000E+00
  1.22596071E+00 -1.84736780E-04  1.05159453E-04  2.86918986E-03  7.21222012E-05
 -9.61886711E-05  8.01632047E-02  2.33079885E-01 -5.24155183E-02  6.99060618E-02
  3.88191157E-02  3.45920728E-01  2.55100117E-01 -2.79054782E-01  2.49442712E-01
  7.11086047E-01  5.97393614E-01 -6.94960963E-01  6.21214754E-01  1.93639017E+00
 -1.99506927E-02 -8.69515722E-02  1.19051583E-02  1.68100180E-02 -2.24193559E-02
 -1.21956208E-02  3.23531962E-01  4.10554169E-03 -5.47552061E-03  8.23975404E-02
  4.89344472E-01  3.18796208E-01 -1.34383608E-01  1.20123409E-01  9.96237532E-01
  1.07973719E+00 -5.00387447E-01  4.47288526E-01  1.27471025E+00  1.93639017E+00
 -3.88186180E-02 -3.45916987E-01  2.55095522E-01 -2.79063943E-01 -2.49429120E-01
 -7.11080816E-01  5.97385206E-01 -6.94986715E-01 -6.21183526E-01  1.84739851E-04
 -1.05142728E-04  2.86919281E-03  7.21361346E-05  9.61982344E-05 -8.01632487E-02
  2.33079706E-01 -5.24190287E-02 -6.99041894E-02  4.77139653E-09 -6.00780662E-02
 -1.93638244E+00 -8.23973091E-02 -4.89342890E-01  3.18794317E-01 -1.34389157E-01
 -1.20117879E-01 -9.96233811E-01  1.07973102E+00 -5.00407830E-01 -4.47267687E-01
  1.99507691E-02  8.69519460E-02  1.19053629E-02  1.68112041E-02  2.24188358E-02
  1.21962979E-02  3.23532147E-01  4.10604205E-03  5.47567454E-03  6.00784533E-02
  7.91584310E-07 -1.27470516E+00 -1.93638244E+00
Multipole Matrix (0,1,0)                   R   N=         253
 -2.13110396E-01 -4.98017485E-02 -2.13110396E-01  0.00000000E+00  0.00000000E+00
 -2.13110396E-01  7.27077806E-02  4.96075284E-01  0.00000000E+00 -2.13110396E-01
  0.00000000E+00  0.00000000E+00  0.00000000E+00  0.00000000E+00 -2.13110396E-01
 -3.56490558E-02 -1.62739788E-01  0.00000000E+00  4.82583279E-01  0.00000000E+00
 -2.13110396E-01  0.00000000E+00  0.00000000E+00 -1.06879262E-01  0.00000000E+00
  0.00000000E+00  0.00000000E+00 -2.13110396E-01  1.00190010E-02  3.29089724E-01
  0.00000000E+00 -1.06879262E-01  0.00000000E+00  9.62240114E-01  0.00000000E+00
 -2.13110396E-01  0.00000000E+00  0.00000000E+00  0.00000000E+00  0.00000000E+00
 -1.06879262E-01  0.00000000E+00  0.00000000E+00  0.00000000E+00 -2.13110396E-01
 -6.50638966E-15  2.76431149E-04  7.79393783E-04  2.63074813E-04 -2.83653165E-09