Jobname.Temp
SP        R                             6-31G               
Number of atoms                            I                1
Charge                                     I                0
Multiplicity                               I                1
Number of electrons                        I               12
Number of alpha electrons                  I                6
Number of beta electrons                   I                6
Atomic numbers                             I   N=           1
          12
Current cartesian coordinates              R   N=           3
  0.00000000E+00  0.00000000E+00  0.00000000E+00
Nuclear charges                            R   N=           1
  1.20000000E+01
Number of basis functions                  I               13
Number of contracted shells                I                4
Number of primitive shells                 I               16
Highest angular momentum                   I                1
Largest degree of contraction              I                6
Shell types                                I   N=           4
           0          -1          -1          -1
Number of primitives per shell             I   N=           4
           6           6           3           1
Shell to atom map                          I   N=           4
           1           1           1           1
Primitive exponents                        R   N=          16
  1.17228000E+04  1.75993000E+03  4.00846000E+02  1.12807000E+02  3.59997000E+01
  1.21828000E+01  1.89180000E+02  4.52119000E+01  1.43563000E+01  5.13886000E+00
  1.90652000E+00  7.05887000E-01  9.29340000E-01  2.69035000E-01  1.17379000E-01
  4.21061000E-02
Contraction coefficients                   R   N=          16
  1.97779911E-03  1.51139932E-02  7.39109667E-02  2.49190888E-01  4.87927780E-01
  3.19661856E-01 -3.23720052E-03 -4.10080066E-02 -1.12600018E-01  1.48633024E-01
  6.16497099E-01  3.64829058E-01 -2.12290898E-01 -1.07985457E-01  1.17584498E+00
  1.00000000E+00
P(S=P) Contraction coefficients            R   N=          16
  0.00000000E+00  0.00000000E+00  0.00000000E+00  0.00000000E+00  0.00000000E+00
  0.00000000E+00  4.92809966E-03  3.49889976E-02  1.40724990E-01  3.33641977E-01
  4.44939969E-01  2.69253981E-01 -2.24189990E-02  1.92269991E-01  8.46180961E-01
  1.00000000E+00
Coordinates of each shell                  R   N=          12
  0.00000000E+00  0.00000000E+00  0.00000000E+00  0.00000000E+00  0.00000000E+00
  0.00000000E+00  0.00000000E+00  0.00000000E+00  0.00000000E+00  0.00000000E+00
  0.00000000E+00  0.00000000E+00
Orthonormalization Matrix                  R   N=          91
  1.02329595E+00 -1.45039395E-02 -3.46944695E-18  1.35074596E-17  2.84494650E-16
  1.31699649E+00  1.35013554E-17 -3.33066907E-16 -5.26500373E-01 -2.26550820E-16
 -1.51770815E-17 -5.20297191E-18 -6.28159634E-18 -4.19552359E-17 -1.46790805E-01
  3.12117748E-02  1.45320280E-17  2.44429221E-16  3.64464266E-16 -1.46790805E-01
  6.94383688E-17  2.44429221E-16  2.74086309E-16 -7.51826444E-17 -6.15939416E-16
  1.31699649E+00  3.12117748E-02 -8.17258915E-02 -4.64208939E-18  2.84494650E-16
  4.43167638E-17  6.18175858E-16 -5.26500373E-01 -2.83194367E-17  1.69915957E+00
 -6.15939416E-16 -6.69896019E-18 -1.94289029E-16 -4.22296746E-17 -4.64208939E-18
 -3.51752650E-17 -7.23278740E-18 -9.50058003E-01 -1.83088756E-16  1.04763880E-16
 -1.27322763E-01  2.74086309E-16 -1.46790805E-01 -4.19552359E-17 -1.54410634E-16
 -7.37257477E-17  5.04777426E-16  5.06044901E-16 -1.46790805E-01 -1.27322763E-01
  1.05537346E-16  1.31838984E-16  4.66005909E-02  9.29322198E-17  3.79379691E-17
 -3.46944695E-18 -6.28159634E-18 -6.98946916E-16  4.66005909E-02  1.98796645E-17
 -8.17258915E-02  9.05824294E-17  1.98796645E-17  5.04777426E-16 -1.97233739E-16
  1.02325774E+00  6.59194921E-17 -1.50514367E-16  9.05824294E-17  3.29210404E-16
 -5.20297191E-18 -6.29795571E-02 -1.51783187E-16  3.79379691E-17 -2.83194367E-17
 -7.51826444E-17  4.23889168E-17 -1.46790805E-01 -7.37257477E-17  1.02325774E+00
 -1.97233739E-16 -1.92547069E-16 -1.22608330E-18  1.05537346E-16 -1.42959426E-16
  1.02325774E+00
Overlap Matrix                             R   N=          91
  1.00000000E+00  2.38750879E-01  1.00000000E+00  0.00000000E+00  0.00000000E+00
  1.00000000E+00  0.00000000E+00  0.00000000E+00  0.00000000E+00  1.00000000E+00
  0.00000000E+00  0.00000000E+00  0.00000000E+00  0.00000000E+00  1.00000000E+00
  1.91224302E-03  2.21999199E-01  0.00000000E+00  0.00000000E+00  0.00000000E+00
  1.00000000E+00  0.00000000E+00  0.00000000E+00  2.24594169E-01  0.00000000E+00
  0.00000000E+00  0.00000000E+00  1.00000000E+00  0.00000000E+00  0.00000000E+00
  0.00000000E+00  2.24594169E-01  0.00000000E+00  0.00000000E+00  0.00000000E+00
  1.00000000E+00  0.00000000E+00  0.00000000E+00  0.00000000E+00  0.00000000E+00
  2.24594169E-01  0.00000000E+00  0.00000000E+00  0.00000000E+00  1.00000000E+00
  2.36581638E-02  2.17538452E-01  0.00000000E+00  0.00000000E+00  0.00000000E+00
  8.57062971E-01  0.00000000E+00  0.00000000E+00  0.00000000E+00  1.00000000E+00
  0.00000000E+00  0.00000000E+00  6.42670126E-02  0.00000000E+00  0.00000000E+00
  0.00000000E+00  6.89592226E-01  0.00000000E+00  0.00000000E+00  0.00000000E+00
  1.00000000E+00  0.00000000E+00  0.00000000E+00  0.00000000E+00  6.42670126E-02
  0.00000000E+00  0.00000000E+00  0.00000000E+00  6.89592226E-01  0.00000000E+00
  0.00000000E+00  0.00000000E+00  1.00000000E+00  0.00000000E+00  0.00000000E+00
  0.00000000E+00  0.00000000E+00  6.42670126E-02  0.00000000E+00  0.00000000E+00
  0.00000000E+00  6.89592226E-01  0.00000000E+00  0.00000000E+00  0.00000000E+00
  1.00000000E+00
Kinetic Energy Matrix                      R   N=          91
  6.76502062E+01 -3.22454065E+00  2.50427952E+00  0.00000000E+00  0.00000000E+00
  7.82728953E+00  0.00000000E+00  0.00000000E+00  0.00000000E+00  7.82728953E+00
  0.00000000E+00  0.00000000E+00  0.00000000E+00  0.00000000E+00  7.82728953E+00
 -1.13707591E-01 -2.24643102E-01  0.00000000E+00  0.00000000E+00  0.00000000E+00
  1.99670313E-01  0.00000000E+00  0.00000000E+00  1.18177645E-01  0.00000000E+00
  0.00000000E+00  0.00000000E+00  3.32043614E-01  0.00000000E+00  0.00000000E+00
  0.00000000E+00  1.18177645E-01  0.00000000E+00  0.00000000E+00  0.00000000E+00
  3.32043614E-01  0.00000000E+00  0.00000000E+00  0.00000000E+00  0.00000000E+00
  1.18177645E-01  0.00000000E+00  0.00000000E+00  0.00000000E+00  3.32043614E-01
  2.98150284E-03  2.63932290E-02  0.00000000E+00  0.00000000E+00  0.00000000E+00
  7.71487264E-02  0.00000000E+00  0.00000000E+00  0.00000000E+00  6.31591500E-02
  0.00000000E+00  0.00000000E+00  1.29693554E-02  0.00000000E+00  0.00000000E+00
  0.00000000E+00  1.08757166E-01  0.00000000E+00  0.00000000E+00  0.00000000E+00
  1.05265250E-01  0.00000000E+00  0.00000000E+00  0.00000000E+00  1.29693554E-02
  0.00000000E+00  0.00000000E+00  0.00000000E+00  1.08757166E-01  0.00000000E+00
  0.00000000E+00  0.00000000E+00  1.05265250E-01  0.00000000E+00  0.00000000E+00
  0.00000000E+00  0.00000000E+00  1.29693554E-02  0.00000000E+00  0.00000000E+00
  0.00000000E+00  1.08757166E-01  0.00000000E+00  0.00000000E+00  0.00000000E+00
  1.05265250E-01
Nuclear Attraction Matrix                  R   N=          91
 -1.39563170E+02 -1.32117770E+01 -2.18454252E+01  0.00000000E+00  0.00000000E+00
 -2.35524689E+01  0.00000000E+00  0.00000000E+00  0.00000000E+00 -2.35524689E+01
  0.00000000E+00  0.00000000E+00  0.00000000E+00  0.00000000E+00 -2.35524689E+01
 -2.62394697E-02 -2.42524492E+00  0.00000000E+00  0.00000000E+00  0.00000000E+00
 -5.18394230E+00  0.00000000E+00  0.00000000E+00 -2.49056113E+00  0.00000000E+00
  0.00000000E+00  0.00000000E+00 -4.69901226E+00  0.00000000E+00  0.00000000E+00
  0.00000000E+00 -2.49056113E+00  0.00000000E+00  0.00000000E+00  0.00000000E+00
 -4.69901226E+00  0.00000000E+00  0.00000000E+00  0.00000000E+00  0.00000000E+00
 -2.49056113E+00  0.00000000E+00  0.00000000E+00  0.00000000E+00 -4.69901226E+00
 -1.65518269E+00 -3.24841177E+00  0.00000000E+00  0.00000000E+00  0.00000000E+00
 -4.06547300E+00  0.00000000E+00  0.00000000E+00  0.00000000E+00 -3.92937802E+00
  0.00000000E+00  0.00000000E+00 -6.73144887E-01  0.00000000E+00  0.00000000E+00
  0.00000000E+00 -2.57988577E+00  0.00000000E+00  0.00000000E+00  0.00000000E+00
 -2.61958535E+00  0.00000000E+00  0.00000000E+00  0.00000000E+00 -6.73144887E-01
  0.00000000E+00  0.00000000E+00  0.00000000E+00 -2.57988577E+00  0.00000000E+00
  0.00000000E+00  0.00000000E+00 -2.61958535E+00  0.00000000E+00  0.00000000E+00
  0.00000000E+00  0.00000000E+00 -6.73144887E-01  0.00000000E+00  0.00000000E+00
  0.00000000E+00 -2.57988577E+00  0.00000000E+00  0.00000000E+00  0.00000000E+00
 -2.61958535E+00
Core Hamiltonian Matrix                    R   N=          91
 -7.19129634E+01 -1.64363176E+01 -1.93411457E+01  0.00000000E+00  0.00000000E+00
 -1.57251793E+01  0.00000000E+00  0.00000000E+00  0.00000000E+00 -1.57251793E+01
  0.00000000E+00  0.00000000E+00  0.00000000E+00  0.00000000E+00 -1.57251793E+01
 -1.39947061E-01 -2.64988803E+00  0.00000000E+00  0.00000000E+00  0.00000000E+00
 -4.98427199E+00  0.00000000E+00  0.00000000E+00 -2.37238349E+00  0.00000000E+00
  0.00000000E+00  0.00000000E+00 -4.36696865E+00  0.00000000E+00  0.00000000E+00
  0.00000000E+00 -2.37238349E+00  0.00000000E+00  0.00000000E+00  0.00000000E+00
 -4.36696865E+00  0.00000000E+00  0.00000000E+00  0.00000000E+00  0.00000000E+00
 -2.37238349E+00  0.00000000E+00  0.00000000E+00  0.00000000E+00 -4.36696865E+00
 -1.65220119E+00 -3.22201854E+00  0.00000000E+00  0.00000000E+00  0.00000000E+00
 -3.98832428E+00  0.00000000E+00  0.00000000E+00  0.00000000E+00 -3.86621887E+00
  0.00000000E+00  0.00000000E+00 -6.60175532E-01  0.00000000E+00  0.00000000E+00
  0.00000000E+00 -2.47112860E+00  0.00000000E+00  0.00000000E+00  0.00000000E+00
 -2.51432010E+00  0.00000000E+00  0.00000000E+00  0.00000000E+00 -6.60175532E-01
  0.00000000E+00  0.00000000E+00  0.00000000E+00 -2.47112860E+00  0.00000000E+00
  0.00000000E+00  0.00000000E+00 -2.51432010E+00  0.00000000E+00  0.00000000E+00
  0.00000000E+00  0.00000000E+00 -6.60175532E-01  0.00000000E+00  0.00000000E+00
  0.00000000E+00 -2.47112860E+00  0.00000000E+00  0.00000000E+00  0.00000000E+00
 -2.51432010E+00
Multipole Matrix (1,0,0)                   R   N=          91
  0.00000000E+00  0.00000000E+00  0.00000000E+00  4.42467361E-02  3.88476122E-01
  0.00000000E+00  0.00000000E+00  0.00000000E+00  0.00000000E+00  0.00000000E+00
  0.00000000E+00  0.00000000E+00  0.00000000E+00  0.00000000E+00  0.00000000E+00
  0.00000000E+00  0.00000000E+00  2.01736752E-01  0.00000000E+00  0.00000000E+00
  0.00000000E+00  1.06341252E-03  1.42508110E-01  0.00000000E+00  0.00000000E+00
  0.00000000E+00  1.57711799E+00  0.00000000E+00  0.00000000E+00  0.00000000E+00
  0.00000000E+00  0.00000000E+00  0.00000000E+00  0.00000000E+00  0.00000000E+00
  0.00000000E+00  0.00000000E+00  0.00000000E+00  0.00000000E+00  0.00000000E+00
  0.00000000E+00  0.00000000E+00  0.00000000E+00  0.00000000E+00  0.00000000E+00
  0.00000000E+00  0.00000000E+00  1.56597783E-01  0.00000000E+00  0.00000000E+00
  0.00000000E+00  1.68031170E+00  0.00000000E+00  0.00000000E+00  0.00000000E+00
  2.68369562E-04  4.18923190E-02  0.00000000E+00  0.00000000E+00  0.00000000E+00
  1.20037577E+00  0.00000000E+00  0.00000000E+00  0.00000000E+00  2.43667437E+00
  0.00000000E+00  0.00000000E+00  0.00000000E+00  0.00000000E+00  0.00000000E+00
  0.00000000E+00  0.00000000E+00  0.00000000E+00  0.00000000E+00  0.00000000E+00
  0.00000000E+00  0.00000000E+00  0.00000000E+00  0.00000000E+00  0.00000000E+00
  0.00000000E+00  0.00000000E+00  0.00000000E+00  0.00000000E+00  0.00000000E+00
  0.00000000E+00  0.00000000E+00  0.00000000E+00  0.00000000E+00  0.00000000E+00
  0.00000000E+00
Multipole Matrix (0,1,0)                   R   N=          91
  0.00000000E+00  0.00000000E+00  0.00000000E+00  0.00000000E+00  0.00000000E+00
  0.00000000E+00  4.42467361E-02  3.88476122E-01  0.00000000E+00  0.00000000E+00
  0.00000000E+00  0.00000000E+00  0.00000000E+00  0.00000000E+00  0.00000000E+00
  0.00000000E+00  0.00000000E+00  0.00000000E+00  2.01736752E-01  0.00000000E+00
  0.00000000E+00  0.00000000E+00  0.00000000E+00  0.00000000E+00  0.00000000E+00
  0.00000000E+00  0.00000000E+00  0.00000000E+00  1.06341252E-03  1.42508110E-01
  0.00000000E+00  0.00000000E+00  0.00000000E+00  1.57711799E+00  0.00000000E+00
  0.00000000E+00  0.00000000E+00  0.00000000E+00  0.00000000E+00  0.00000000E+00
  0.00000000E+00  0.00000000E+00  0.00000000E+00  0.00000000E+00  0.00000000E+00
  0.00000000E+00  0.00000000E+00  0.00000000E+00  1.56597783E-01  0.00000000E+00
  0.00000000E+00  0.00000000E+00  1.68031170E+00  0.00000000E+00  0.00000000E+00
  0.00000000E+00  0.00000000E+00  0.00000000E+00  0.00000000E+00  0.00000000E+00
  0.00000000E+00  0.00000000E+00  0.00000000E+00  0.00000000E+00  0.00000000E+00
  0.00000000E+00  2.68369562E-04  4.18923190E-02  0.00000000E+00  0.00000000E+00
  0.00000000E+00  1.20037577E+00  0.00000000E+00  0.00000000E+00  0.00000000E+00
  2.43667437E+00  0.00000000E+00  0.00000000E+00  0.00000000E+00  0.00000000E+00
  0.00000000E+00  0.00000000E+00  0.00000000E+00  0.00000000E+00  0.00000000E+00
  0.00000000E+00  0.00000000E+00  0.00000000E+00  0.00000000E+00  0.00000000E+00
  0.00000000E+00
Multipole Matrix (0,0,1)                   R   N=          91
  0.00000000E+00  0.00000000E+00  0.00000000E+00  0.00000000E+00  0.00000000E+00
  0.00000000E+00  0.00000000E+00  0.00000000E+00  0.00000000E+00  0.00000000E+00
  4.42467361E-02  3.88476122E-01  0.00000000E+00  0.00000000E+00  0.00000000E+00
  0.00000000E+00  0.00000000E+00  0.00000000E+00  0.00000000E+00  2.01736752E-01
  0.00000000E+00  0.00000000E+00  0.00000000E+00  0.00000000E+00  0.00000000E+00
  0.00000000E+00  0.00000000E+00  0.00000000E+00  0.00000000E+00  0.00000000E+00
  0.00000000E+00  0.00000000E+00  0.00000000E+00  0.00000000E+00  0.00000000E+00
  0.00000000E+00  1.06341252E-03  1.42508110E-01  0.00000000E+00  0.00000000E+00
  0.00000000E+00  1.57711799E+00  0.00000000E+00  0.00000000E+00  0.00000000E+00
  0.00000000E+00  0.00000000E+00  0.00000000E+00  0.00000000E+00  1.56597783E-01
  0.00000000E+00  0.00000000E+00  0.00000000E+00  1.68031170E+00  0.00000000E+00
  0.00000000E+00  0.00000000E+00  0.00000000E+00  0.00000000E+00  0.00000000E+00
  0.00000000E+00  0.00000000E+00  0.00000000E+00  0.00000000E+00  0.00000000E+00
  0.00000000E+00  0.00000000E+00  0.00000000E+00  0.00000000E+00  0.00000000E+00
  0.00000000E+00  0.00000000E+00  0.00000000E+00  0.00000000E+00  0.00000000E+00
  0.00000000E+00  0.00000000E+00  0.00000000E+00  2.68369562E-04  4.18923190E-02
  0.00000000E+00  0.00000000E+00  0.00000000E+00  1.20037577E+00  0.00000000E+00
  0.00000000E+00  0.00000000E+00  2.43667437E+00  0.00000000E+00  0.00000000E+00
  0.00000000E+00
Multipole Matrix (2,0,0)                   R   N=          91
  7.52747132E-03  7.23013957E-03  1.82285851E-01  0.00000000E+00  0.00000000E+00
  3.47795621E-01  0.00000000E+00  0.00000000E+00  0.00000000E+00  1.15931874E-01
  0.00000000E+00  0.00000000E+00  0.00000000E+00  0.00000000E+00  1.15931874E-01
  1.48550133E-04  1.40626294E-01  0.00000000E+00  0.00000000E+00  0.00000000E+00
  2.57289137E+00  0.00000000E+00  0.00000000E+00  2.87922267E-01  0.00000000E+00
  0.00000000E+00  0.00000000E+00  5.67925164E+00  0.00000000E+00  0.00000000E+00
  0.00000000E+00  9.59740891E-02  0.00000000E+00  0.00000000E+00  0.00000000E+00
  1.89308388E+00  0.00000000E+00  0.00000000E+00  0.00000000E+00  0.00000000E+00
  9.59740891E-02  0.00000000E+00  0.00000000E+00  0.00000000E+00  1.89308388E+00
  6.53929233E-04  1.02077940E-01  0.00000000E+00  0.00000000E+00  0.00000000E+00
  2.92492488E+00  0.00000000E+00  0.00000000E+00  0.00000000E+00  5.93738199E+00
  0.00000000E+00  0.00000000E+00  9.48959544E-02  0.00000000E+00  0.00000000E+00
  0.00000000E+00  6.16321466E+00  0.00000000E+00  0.00000000E+00  0.00000000E+00
  1.78121460E+01  0.00000000E+00  0.00000000E+00  0.00000000E+00  3.16319848E-02
  0.00000000E+00  0.00000000E+00  0.00000000E+00  2.05440489E+00  0.00000000E+00
  0.00000000E+00  0.00000000E+00  5.93738199E+00  0.00000000E+00  0.00000000E+00
  0.00000000E+00  0.00000000E+00  3.16319848E-02  0.00000000E+00  0.00000000E+00
  0.00000000E+00  2.05440489E+00  0.00000000E+00  0.00000000E+00  0.00000000E+00
  5.93738199E+00
Multipole Matrix (1,1,0)                   R   N=          91
  0.00000000E+00  0.00000000E+00  0.00000000E+00  0.00000000E+00  0.00000000E+00
  0.00000000E+00  0.00000000E+00  0.00000000E+00  1.15931874E-01  0.00000000E+00
  0.00000000E+00  0.00000000E+00  0.00000000E+00  0.00000000E+00  0.00000000E+00
  0.00000000E+00  0.00000000E+00  0.00000000E+00  0.00000000E+00  0.00000000E+00
  0.00000000E+00  0.00000000E+00  0.00000000E+00  0.00000000E+00  9.59740891E-02
  0.00000000E+00  0.00000000E+00  0.00000000E+00  0.00000000E+00  0.00000000E+00
  9.59740891E-02  0.00000000E+00  0.00000000E+00  0.00000000E+00  1.89308388E+00
  0.00000000E+00  0.00000000E+00  0.00000000E+00  0.00000000E+00  0.00000000E+00
  0.00000000E+00  0.00000000E+00  0.00000000E+00  0.00000000E+00  0.00000000E+00
  0.00000000E+00  0.00000000E+00  0.00000000E+00  0.00000000E+00  0.00000000E+00
  0.00000000E+00  0.00000000E+00  0.00000000E+00  0.00000000E+00  0.00000000E+00
  0.00000000E+00  0.00000000E+00  0.00000000E+00  3.16319848E-02  0.00000000E+00
  0.00000000E+00  0.00000000E+00  2.05440489E+00  0.00000000E+00  0.00000000E+00
  0.00000000E+00  0.00000000E+00  0.00000000E+00  3.16319848E-02  0.00000000E+00
  0.00000000E+00  0.00000000E+00  2.05440489E+00  0.00000000E+00  0.00000000E+00
  0.00000000E+00  5.93738199E+00  0.00000000E+00  0.00000000E+00  0.00000000E+00
  0.00000000E+00  0.00000000E+00  0.00000000E+00  0.00000000E+00  0.00000000E+00
  0.00000000E+00  0.00000000E+00  0.00000000E+00  0.00000000E+00  0.00000000E+00
  0.00000000E+00
Multipole Matrix (0,2,0)                   R   N=          91
  7.52747132E-03  7.23013957E-03  1.82285851E-01  0.00000000E+00  0.00000000E+00
  1.15931874E-01  0.00000000E+00  0.00000000E+00  0.00000000E+00  3.47795621E-01
  0.00000000E+00  0.00000000E+00  0.00000000E+00  0.00000000E+00  1.15931874E-01
  1.48550133E-04  1.40626294E-01  0.00000000E+00  0.00000000E+00  0.00000000E+00
  2.57289137E+00  0.00000000E+00  0.00000000E+00  9.59740891E-02  0.00000000E+00
  0.00000000E+00  0.00000000E+00  1.89308388E+00  0.00000000E+00  0.00000000E+00
  0.00000000E+00  2.87922267E-01  0.00000000E+00  0.00000000E+00  0.00000000E+00
  5.67925164E+00  0.00000000E+00  0.00000000E+00  0.00000000E+00  0.00000000E+00
  9.59740891E-02  0.00000000E+00  0.00000000E+00  0.00000000E+00  1.89308388E+00
  6.53929233E-04  1.02077940E-01  0.00000000E+00  0.00000000E+00  0.00000000E+00
  2.92492488E+00  0.00000000E+00  0.00000000E+00  0.00000000E+00  5.93738199E+00
  0.00000000E+00  0.00000000E+00  3.16319848E-02  0.00000000E+00  0.00000000E+00
  0.00000000E+00  2.05440489E+00  0.00000000E+00  0.00000000E+00  0.00000000E+00
  5.93738199E+00  0.00000000E+00  0.00000000E+00  0.00000000E+00  9.48959544E-02
  0.00000000E+00  0.00000000E+00  0.00000000E+00  6.16321466E+00  0.00000000E+00
  0.00000000E+00  0.00000000E+00  1.78121460E+01  0.00000000E+00  0.00000000E+00
  0.00000000E+00  0.00000000E+00  3.16319848E-02  0.00000000E+00  0.00000000E+00
  0.00000000E+00  2.05440489E+00  0.00000000E+00  0.00000000E+00  0.00000000E+00
  5.93738199E+00
Multipole Matrix (1,0,1)                   R   N=          91
  0.00000000E+00  0.00000000E+00  0.00000000E+00  0.00000000E+00  0.00000000E+00
  0.00000000E+00  0.00000000E+00  0.00000000E+00  0.00000000E+00  0.00000000E+00
  0.00000000E+00  0.00000000E+00  1.15931874E-01  0.00000000E+00  0.00000000E+00
  0.00000000E+00  0.00000000E+00  0.00000000E+00  0.00000000E+00  0.00000000E+00
  0.00000000E+00  0.00000000E+00  0.00000000E+00  0.00000000E+00  0.00000000E+00
  9.59740891E-02  0.00000000E+00  0.00000000E+00  0.00000000E+00  0.00000000E+00
  0.00000000E+00  0.00000000E+00  0.00000000E+00  0.00000000E+00  0.00000000E+00
  0.00000000E+00  0.00000000E+00  0.00000000E+00  9.59740891E-02  0.00000000E+00
  0.00000000E+00  0.00000000E+00  1.89308388E+00  0.00000000E+00  0.00000000E+00
  0.00000000E+00  0.00000000E+00  0.00000000E+00  0.00000000E+00  0.00000000E+00
  0.00000000E+00  0.00000000E+00  0.00000000E+00  0.00000000E+00  0.00000000E+00
  0.00000000E+00  0.00000000E+00  0.00000000E+00  0.00000000E+00  3.16319848E-02
  0.00000000E+00  0.00000000E+00  0.00000000E+00  2.05440489E+00  0.00000000E+00
  0.00000000E+00  0.00000000E+00  0.00000000E+00  0.00000000E+00  0.00000000E+00
  0.00000000E+00  0.00000000E+00  0.00000000E+00  0.00000000E+00  0.00000000E+00
  0.00000000E+00  0.00000000E+00  0.00000000E+00  0.00000000E+00  0.00000000E+00
  3.16319848E-02  0.00000000E+00  0.00000000E+00  0.00000000E+00  2.05440489E+00
  0.00000000E+00  0.00000000E+00  0.00000000E+00  5.93738199E+00  0.00000000E+00
  0.00000000E+00
Multipole Matrix (0,1,1)                   R   N=          91
  0.00000000E+00  0.00000000E+00  0.00000000E+00  0.00000000E+00  0.00000000E+00
  0.00000000E+00  0.00000000E+00  0.00000000E+00  0.00000000E+00  0.00000000E+00
  0.00000000E+00  0.00000000E+00  0.00000000E+00  1.15931874E-01  0.00000000E+00
  0.00000000E+00  0.00000000E+00  0.00000000E+00  0.00000000E+00  0.00000000E+00
  0.00000000E+00  0.00000000E+00  0.00000000E+00  0.00000000E+00  0.00000000E+00
  0.00000000E+00  0.00000000E+00  0.00000000E+00  0.00000000E+00  0.00000000E+00
  0.00000000E+00  0.00000000E+00  9.59740891E-02  0.00000000E+00  0.00000000E+00
  0.00000000E+00  0.00000000E+00  0.00000000E+00  0.00000000E+00  9.59740891E-02
  0.00000000E+00  0.00000000E+00  0.00000000E+00  1.89308388E+00  0.00000000E+00
  0.00000000E+00  0.00000000E+00  0.00000000E+00  0.00000000E+00  0.00000000E+00
  0.00000000E+00  0.00000000E+00  0.00000000E+00  0.00000000E+00  0.00000000E+00
  0.00000000E+00  0.00000000E+00  0.00000000E+00  0.00000000E+00  0.00000000E+00
  0.00000000E+00  0.00000000E+00  0.00000000E+00  0.00000000E+00  0.00000000E+00
  0.00000000E+00  0.00000000E+00  0.00000000E+00  0.00000000E+00  0.00000000E+00
  3.16319848E-02  0.00000000E+00  0.00000000E+00  0.00000000E+00  2.05440489E+00
  0.00000000E+00  0.00000000E+00  0.00000000E+00  0.00000000E+00  0.00000000E+00
  0.00000000E+00  3.16319848E-02  0.00000000E+00  0.00000000E+00  0.00000000E+00
  2.05440489E+00  0.00000000E+00  0.00000000E+00  0.00000000E+00  5.93738199E+00
  0.00000000E+00
Multipole Matrix (0,0,2)                   R   N=          91
  7.52747132E-03  7.23013957E-03  1.82285851E-01  0.00000000E+00  0.00000000E+00
  1.15931874E-01  0.00000000E+00  0.00000000E+00  0.00000000E+00  1.15931874E-01
  0.00000000E+00  0.00000000E+00  0.00000000E+00  0.00000000E+00  3.47795621E-01
  1.48550133E-04  1.40626294E-01  0.00000000E+00  0.00000000E+00  0.00000000E+00
  2.57289137E+00  0.00000000E+00  0.00000000E+00  9.59740891E-02  0.00000000E+00
  0.00000000E+00  0.00000000E+00  1.89308388E+00  0.00000000E+00  0.00000000E+00
  0.00000000E+00  9.59740891E-02  0.00000000E+00  0.00000000E+00  0.00000000E+00
  1.89308388E+00  0.00000000E+00  0.00000000E+00  0.00000000E+00  0.00000000E+00
  2.87922267E-01  0.00000000E+00  0.00000000E+00  0.00000000E+00  5.67925164E+00
  6.53929233E-04  1.02077940E-01  0.00000000E+00  0.00000000E+00  0.00000000E+00
  2.92492488E+00  0.00000000E+00  0.00000000E+00  0.00000000E+00  5.93738199E+00
  0.00000000E+00  0.00000000E+00  3.16319848E-02  0.00000000E+00  0.00000000E+00
  0.00000000E+00  2.05440489E+00  0.00000000E+00  0.00000000E+00  0.00000000E+00
  5.93738199E+00  0.00000000E+00  0.00000000E+00  0.00000000E+00  3.16319848E-02
  0.00000000E+00  0.00000000E+00  0.00000000E+00  2.05440489E+00  0.00000000E+00
  0.00000000E+00  0.00000000E+00  5.93738199E+00  0.00000000E+00  0.00000000E+00
  0.00000000E+00  0.00000000E+00  9.48959544E-02  0.00000000E+00  0.00000000E+00
  0.00000000E+00  6.16321466E+00  0.00000000E+00  0.00000000E+00  0.00000000E+00
  1.78121460E+01
Number of independent functions            I               13
Alpha MO coefficients                      R   N=         169
  9.97456872E-01  1.03424790E-02  9.13188131E-17  3.15917466E-16  8.95548534E-17
 -2.72866975E-03  7.67166969E-16 -5.22512984E-17 -2.03905928E-17  1.29008576E-03
 -2.26343730E-16  2.38728924E-17 -2.63637671E-17  2.54665992E-01 -1.02672404E+00
  6.25702730E-16 -9.63922589E-16 -4.85749944E-17 -1.97446259E-02 -9.87038345E-16
  1.88367559E-16  3.86918850E-18  7.67165160E-03  7.10578979E-16  2.29577462E-16
  2.91982978E-17 -1.00779327E-18 -1.88197634E-17  7.60703349E-16 -4.41039891E-16
  9.92596982E-01 -1.04850017E-16 -1.90323221E-16  4.45738383E-17  3.45675961E-02
  1.55859298E-16 -2.40744975E-16 -2.57976060E-16 -1.13221393E-02 -3.03020735E-17
  1.74652320E-16  9.92596982E-01 -1.19378482E-15  3.06910530E-16  1.28084466E-15
  3.45675962E-02  5.61216934E-16 -2.64528389E-17 -1.73560973E-15 -1.13221393E-02
 -3.61166938E-16 -4.03299491E-16  4.60639860E-17 -2.22077703E-16  5.29465373E-16
  9.92596982E-01  1.28640588E-16 -7.00248492E-16  7.03371991E-16  3.45675962E-02
 -4.24986499E-16 -1.12867736E-16  7.54468913E-17 -1.13221393E-02  1.86181336E-16
 -5.02742789E-02  2.57371544E-01 -1.58305706E-16 -1.31791890E-16 -3.26030798E-17
 -5.78472629E-01 -3.82536898E-16  2.81182177E-16  2.49985660E-16 -4.88120374E-01
  9.18733382E-16 -2.32064199E-16 -1.36631477E-16  7.50393473E-18 -2.21300496E-17
 -6.59108933E-17 -1.67805985E-16  1.44464669E-01  8.85349288E-17  6.89335534E-17
  3.69113656E-16 -3.55497861E-01 -9.06840750E-17 -1.28493790E-16 -2.91560917E-17
 -7.29253405E-01  5.61504392E-17 -1.16866333E-16  1.44464668E-01  4.72179361E-17
 -7.02218053E-17  1.25843756E-15 -3.55497860E-01 -3.38284738E-16 -3.40889444E-18
 -1.22761157E-15 -7.29253406E-01  1.55114574E-16 -3.11857224E-17  1.03878389E-17
 -1.88940968E-17  1.73204896E-17  1.44464668E-01 -1.14378083E-16  5.38852527E-16
  1.73146799E-16 -3.55497859E-01  4.71241259E-16 -6.92459987E-16 -1.16900319E-16
 -7.29253407E-01 -1.15498566E-16 -4.71990799E-02  2.14171192E-02  5.17119222E-16
 -4.46234016E-16  3.66739102E-17 -1.86074686E+00 -3.34495665E-15  2.91623266E-15
 -3.06421896E-17  1.88244594E+00  3.48508461E-15 -2.72130042E-15  2.11904019E-17
  5.95305851E-18 -1.64294495E-17 -9.26689778E-18  1.03294960E-16 -2.54276898E-01
  9.83098548E-17  7.62636570E-17 -1.73975723E-16  1.38045510E+00 -9.08022555E-17
 -2.25382894E-17 -8.93718677E-16 -1.18605950E+00  1.60822864E-16 -1.29886161E-16
  2.54276898E-01 -5.36914544E-16  1.20697851E-16  5.36662619E-15 -1.38045510E+00
  1.54255806E-15 -7.78868368E-17 -5.80314058E-15  1.18605950E+00 -1.14624276E-15
  7.44491668E-18 -1.81870483E-16  3.63438179E-16  5.39479105E-16  2.54276898E-01
  5.14083751E-17 -3.89928075E-15 -2.16368375E-15 -1.38045510E+00 -3.29210869E-16
  3.99690935E-15  2.26873016E-15  1.18605950E+00  5.81595533E-16
Alpha Orbital Energies                     R   N=          13
 -4.68083990E+01 -3.09738488E+00 -1.84055890E+00 -1.84055890E+00 -1.84055890E+00
 -1.94936050E-01 -3.11128345E-02 -3.11128344E-02 -3.11128340E-02  1.09515925E-01
  1.70182414E-01  1.70182414E-01  1.70182414E-01
Total SCF Density                          R   N=          91
  2.12460497E+00 -5.28189376E-01  2.24101866E+00  4.56625485E-16 -1.01772718E-15
  1.97049754E+00  2.43968922E-16  1.47719345E-15 -1.36593344E-15  1.97049754E+00
  1.55190937E-16  4.74555766E-17  2.11934420E-15 -6.20190748E-16  1.97049754E+00
  4.26645583E-02 -2.57276666E-01  2.70066923E-15 -1.20131256E-15 -1.68998183E-16
  6.70055756E-01  1.06407033E-15  1.85786721E-15  6.86233833E-02  1.31215887E-15
 -3.56611035E-16  5.65916406E-16  2.38983741E-03 -3.33830309E-17 -2.58500619E-16
  1.14908753E-15  6.86233833E-02  9.73808368E-17 -3.80877541E-16  8.73705066E-17
  2.38983741E-03 -6.39121439E-17  1.19010326E-16  7.62329653E-20 -8.74172730E-16
  6.86233832E-02 -2.96510063E-16 -1.49868716E-17 -2.62999495E-17  2.38983741E-03
  5.55608270E-02 -2.66983242E-01 -3.28114152E-15 -1.09378370E-16  3.40725158E-16
  5.64418563E-01  2.40291388E-16 -2.79549268E-16 -2.33264070E-16  4.76644036E-01
 -1.81306765E-16 -9.94862167E-16 -2.24766426E-02  1.77345798E-16 -4.84875540E-16
 -1.11875303E-15 -7.82758278E-04 -7.47361510E-18 -1.60449481E-17 -8.47284710E-16
  2.56381677E-04  1.86846140E-16 -5.85356241E-16 -7.28438305E-16 -2.24766426E-02
 -5.15045160E-16  2.75146072E-16 -4.08780161E-17 -7.82758278E-04 -8.21169326E-18
  2.32690409E-16  6.46380102E-18  2.56381677E-04 -2.39608958E-17 -1.30406470E-16
 -8.17852662E-16  3.79593368E-16 -2.24766426E-02  1.59440249E-16 -2.35724240E-17
  1.18623457E-17 -7.82758278E-04  1.30235869E-16  1.45839221E-17  1.62573747E-18
  2.56381677E-04
Pure Switching                             I                1
Dipole_Data                                R   N=           3
  1.13422196E-14 -4.60955278E-16  1.49896369E-15
Quadrupole_Data                            R   N=           6
 -1.25908141E+01 -4.43518132E-16 -1.25908141E+01 -3.95715393E-16  4.93282838E-16
 -1.25908141E+01
Octapole_Data                              R   N=          10
  5.72437450E-14 -2.40310213E-15  1.90812483E-14 -7.20930638E-15 -5.22749036E-16
  0.00000000E+00 -5.22749036E-16  1.90812483E-14 -2.40310213E-15 -1.56824711E-15
Hexadecapole_Data                          R   N=          15
 -3.58548049E+01 -7.49688639E-16 -1.19516016E+01 -7.49688639E-16 -3.58548049E+01
 -4.81028656E-16  5.36665804E-17 -1.60342885E-16  1.60999741E-16 -1.19516016E+01
 -2.49896213E-16 -1.19516016E+01 -4.81028656E-16  1.60999741E-16 -3.58548049E+01
Jobname.Temp
SP        R                             6-31G               
Number of atoms                            I                1
Charge                                     I                0
Multiplicity                               I                1
Number of electrons                        I               12