Jobname.Temp
FREQ      R                             6-31G               
Number of atoms                            I                4
Charge                                     I                0
Multiplicity                               I                1
Number of electrons                        I               18
Number of alpha electrons                  I                9
Number of beta electrons                   I                9
Atomic numbers                             I   N=           4
           8           8           1           1
Current cartesian coordinates              R   N=          12
  1.20840765E+00 -2.93548895E-01 -2.61587157E-16 -1.20840476E+00  2.93547052E-01
  2.61585066E-16  2.09264431E+00  1.35608391E+00  1.94236904E-15 -2.09266745E+00
 -1.35606917E+00 -1.94235231E-15
Nuclear charges                            R   N=           4
  8.00000000E+00  8.00000000E+00  1.00000000E+00  1.00000000E+00
Number of basis functions                  I               22
Number of contracted shells                I               10
Number of primitive shells                 I               28
Highest angular momentum                   I                1
Largest degree of contraction              I                6
Shell types                                I   N=          10
           0          -1          -1           0          -1          -1
           0           0           0           0
Number of primitives per shell             I   N=          10
           6           3           1           6           3           1
           3           1           3           1
Shell to atom map                          I   N=          10
           1           1           1           2           2           2
           3           3           4           4
Primitive exponents                        R   N=          28
  5.48467170E+03  8.25234950E+02  1.88046960E+02  5.29645000E+01  1.68975700E+01
  5.79963530E+00  1.55396160E+01  3.59993360E+00  1.01376180E+00  2.70005800E-01
  5.48467170E+03  8.25234950E+02  1.88046960E+02  5.29645000E+01  1.68975700E+01
  5.79963530E+00  1.55396160E+01  3.59993360E+00  1.01376180E+00  2.70005800E-01
  1.87311370E+01  2.82539370E+00  6.40121700E-01  1.61277800E-01  1.87311370E+01
  2.82539370E+00  6.40121700E-01  1.61277800E-01
Contraction coefficients                   R   N=          28
  1.83109981E-03  1.39500985E-02  6.84450927E-02  2.32714275E-01  4.70192950E-01
  3.58520862E-01 -1.10777504E-01 -1.48026305E-01  1.13076704E+00  1.00000000E+00
  1.83109981E-03  1.39500985E-02  6.84450927E-02  2.32714275E-01  4.70192950E-01
  3.58520862E-01 -1.10777504E-01 -1.48026305E-01  1.13076704E+00  1.00000000E+00
  3.34945995E-02  2.34726947E-01  8.13757318E-01  1.00000000E+00  3.34945995E-02
  2.34726947E-01  8.13757318E-01  1.00000000E+00
P(S=P) Contraction coefficients            R   N=          28
  0.00000000E+00  0.00000000E+00  0.00000000E+00  0.00000000E+00  0.00000000E+00
  0.00000000E+00  7.08742995E-02  3.39752798E-01  7.27158595E-01  1.00000000E+00
  0.00000000E+00  0.00000000E+00  0.00000000E+00  0.00000000E+00  0.00000000E+00
  0.00000000E+00  7.08742995E-02  3.39752798E-01  7.27158595E-01  1.00000000E+00
  0.00000000E+00  0.00000000E+00  0.00000000E+00  0.00000000E+00  0.00000000E+00
  0.00000000E+00  0.00000000E+00  0.00000000E+00
Coordinates of each shell                  R   N=          30
  1.20840765E+00 -2.93548895E-01 -2.61587157E-16  1.20840765E+00 -2.93548895E-01
 -2.61587157E-16  1.20840765E+00 -2.93548895E-01 -2.61587157E-16 -1.20840476E+00
  2.93547052E-01  2.61585066E-16 -1.20840476E+00  2.93547052E-01  2.61585066E-16
 -1.20840476E+00  2.93547052E-01  2.61585066E-16  2.09264431E+00  1.35608391E+00
  1.94236904E-15  2.09264431E+00  1.35608391E+00  1.94236904E-15 -2.09266745E+00
 -1.35606917E+00 -1.94235231E-15 -2.09266745E+00 -1.35606917E+00 -1.94235231E-15
Orthonormalization Matrix                  R   N=         253
 -2.49662138E-03 -4.95292398E-02 -1.41884279E-16 -3.65833694E-04  3.64215774E-03
  3.67089764E-04  6.24665689E-16  2.89750879E-02 -1.81760573E-03  1.10844692E-03
 -6.50274224E-01 -2.02286596E-02 -2.19968545E-16 -2.30070956E-02  1.12990832E+00
  3.30715383E-16  2.34786901E-02 -2.93410564E-01 -9.65852516E-02  1.13329161E-16
 -2.56899626E-16  9.26035263E-03  6.67375345E-16 -2.30740551E-16  5.94810299E-16
 -5.02035799E-16  1.24480206E-01  1.12209207E-01  2.34788329E-02 -9.10866070E-04
 -5.24879216E-17  5.76988684E-18 -7.40036792E-04 -7.29488620E-02  9.92929851E-17
 -2.05877801E-01 -1.11674564E-16  1.27735145E-02  1.34291755E-02 -3.09198234E-02
 -7.29488620E-02 -1.27736144E-02 -3.45568827E-01  5.55816102E-02  7.52863289E-04
 -1.27736144E-02 -4.66794020E-16 -6.21729418E-17  6.03136207E-17 -8.76050168E-17
 -2.55224860E-02  4.77388565E-03 -3.31106037E-02  3.76851550E-17  4.86167429E-03
  1.56672575E-03 -1.07371400E-01  1.55350327E+00  1.32732085E-02 -2.30070956E-02
 -2.02636104E-01 -3.84417334E-01  1.06002684E-16 -3.14949670E-01 -2.17278818E-17
  1.10851780E-03 -2.05525576E-16 -1.54852319E-16 -1.02885822E+00 -1.12206989E-01
  1.45754231E-01  1.21543153E+00 -2.19968545E-16 -5.43264611E-17 -7.75764608E-18
 -1.02885933E+00  1.13493525E+00  7.01471878E-17  2.79889084E-02  2.98419195E-16
 -1.31939461E-02  4.65411524E-02  5.40727029E-02 -7.48779482E-03 -8.68582849E-03
 -1.07371400E-01 -4.95291939E-02 -5.16000761E-02  3.01419847E-02 -5.24024602E-02
 -9.26008758E-03 -2.25021230E-16  1.39874612E-01  7.48782630E-03  3.09201238E-02
  1.39506056E-02 -2.49664212E-03  3.75246287E-04  1.25030912E-16 -2.30740551E-16
  3.21242553E+00 -2.46730600E-03  2.34786901E-02 -7.40036792E-04  3.64215774E-03
 -5.16000761E-02 -5.17994110E-17  2.21862271E-16  7.55878061E-02 -2.53921286E-16
  2.05139874E-02 -2.46730600E-03 -1.03054539E+00 -3.19892479E-01  1.12990840E+00
 -2.61823555E-02 -2.05880577E-01 -3.78419403E-01  2.11095320E-16  6.02767831E-01
  1.10851780E-03  2.82099808E-16  1.11882331E-16  1.80593496E-16 -1.80551452E-16
 -2.14451005E-01 -3.47488926E-01 -6.50274224E-01  6.67375345E-16  1.81761725E-03
 -2.56899626E-16  5.76988684E-18  2.79889084E-02 -2.79923343E-01 -6.35586084E-01
  1.09591848E-02  1.14047828E-16  3.75206820E-04  2.05139874E-02  1.02281829E+00
  3.57659866E-16  2.73259525E-02  1.03054437E+00 -6.37954398E-16 -8.54674999E-02
 -2.02284968E-02 -1.10126769E-17  1.81761725E-03  7.52863289E-04  6.16341058E-04
 -8.68582849E-03 -2.02286596E-02  7.16429086E-01 -1.48985761E-16 -1.78143111E-16
  4.86170079E-03  9.26035263E-03 -9.14791607E-03 -1.45755676E-01 -8.95143269E-17
  1.58908437E+00 -9.14791607E-03 -2.57529850E-02 -1.09589948E-02  2.81813547E-03
  1.12990410E-02  1.92173487E-01  2.22882935E-01 -7.16788961E-03  6.02767831E-01
  2.82099808E-16  1.34292494E-02  6.24665689E-16 -8.95143269E-17 -5.24879216E-17
 -1.41884279E-16  7.29489524E-02 -1.32735282E-02 -7.48779482E-03  5.51687594E-17
 -5.69677959E-17 -3.45568827E-01  2.16577858E-16  8.63037701E-02  3.30715383E-16
  1.39874336E-01 -3.65833694E-04  8.43314814E-17 -3.01414717E-02 -7.52914878E-04
  3.75246287E-04  5.40741602E-02  3.76851550E-17  1.10844692E-03 -1.66239271E-02
 -1.07371367E-01 -1.48985761E-16  2.11095320E-16 -9.26008758E-03  7.48782630E-03
  4.65401406E-02 -7.16788961E-03  2.73260379E-02  2.30072824E-02  1.55350360E+00
 -1.02885933E+00  3.75206820E-04  3.64655943E-17 -1.11674564E-16 -1.07371367E-01
  2.05140500E-02 -2.53921286E-16  2.46682666E-03  5.46331725E-03  1.11943288E+00
 -1.31949534E-02 -3.47488926E-01 -1.66208886E-02  7.40046040E-04 -2.26466547E-17
 -4.34464855E-16 -3.14949670E-01  1.25030912E-16  3.93717345E-17  9.14619670E-03
  1.13493493E+00 -3.09198234E-02 -2.89746372E-02  1.06002684E-16  1.09591848E-02
  8.68582166E-03 -1.81760573E-03 -6.16358968E-04  1.13329161E-16 -2.61814608E-02
  3.64197326E-03 -1.32735282E-02  1.12209207E-01  1.12990410E-02  1.92175486E-01
 -9.10866070E-04 -8.98777173E-17  3.64197326E-03  1.39506056E-02  5.24008501E-02
  2.81808875E-03  2.30072824E-02 -1.45755676E-01  3.09201238E-02 -4.95292398E-02
 -6.16358968E-04  7.40046040E-04  1.02281829E+00
Overlap Matrix                             R   N=         253
  1.00000000E+00  2.33689906E-01  1.00000000E+00 -8.64051773E-17  2.68558908E-17
  1.00000000E+00 -6.67164468E-22  1.93654516E-18 -2.71863547E-32  1.00000000E+00
  2.12091466E-32 -7.68320330E-33 -1.08987923E-47  0.00000000E+00  1.00000000E+00
  1.67279760E-01  7.63640773E-01  2.22890541E-16 -5.57226354E-17  3.63406066E-33
  1.00000000E+00  0.00000000E+00  1.95383365E-16  5.01520641E-01 -1.47467775E-32
 -8.38588572E-49  0.00000000E+00  1.00000000E+00 -1.75585464E-22 -4.88458413E-17
 -1.47467775E-32  5.01520641E-01  2.09647143E-49  0.00000000E+00  0.00000000E+00
  1.00000000E+00  0.00000000E+00 -7.48723342E-34 -8.38588572E-49  2.09647143E-49
  5.01520641E-01  0.00000000E+00  0.00000000E+00  0.00000000E+00  1.00000000E+00
  2.08498937E-09  1.70865968E-03 -4.71896054E-03  1.14633747E-03  1.02152284E-18
  3.31757314E-02 -8.06990365E-02  1.96035394E-02  1.74690821E-17  1.00000000E+00
  1.70865968E-03  5.34756869E-02 -8.88107540E-02  2.15740508E-02  1.92250418E-17
  2.08312115E-01 -4.07772262E-01  9.90566921E-02  8.82712784E-17  2.33689906E-01
  1.00000000E+00  4.71896054E-03  8.88107540E-02 -1.32702873E-01  3.83948613E-02
  3.42143819E-17  1.63786014E-01 -2.00619980E-01  8.04169912E-02  7.16610909E-17
  1.84440990E-17  1.86792988E-16  1.00000000E+00 -1.14633747E-03 -2.15740508E-02
  3.83948613E-02  1.60247214E-02 -8.31141254E-18 -3.97871612E-02  8.04169912E-02
  1.10885915E-01 -1.74080272E-17 -2.69904397E-17  8.65051788E-18  0.00000000E+00
  1.00000000E+00 -1.02152284E-18 -1.92250418E-17  3.42143819E-17 -8.31141254E-18
  2.53516627E-02 -3.54550865E-17  7.16610909E-17 -1.74080272E-17  1.30420940E-01
 -3.18944532E-32 -6.14927614E-36  5.94927295E-48  2.72469806E-48  1.00000000E+00
  3.31757314E-02  2.08312115E-01 -1.63786014E-01  3.97871612E-02  3.54550865E-17
  4.33838662E-01 -5.44825895E-01  1.32349980E-01  1.17939553E-16  1.67279760E-01
  7.63640773E-01 -2.39256896E-16  0.00000000E+00 -3.63406066E-33  1.00000000E+00
  8.06990365E-02  4.07772262E-01 -2.00619980E-01  8.04169912E-02  7.16610909E-17
  5.44825895E-01 -2.50367891E-01  1.66208554E-01  1.48111563E-16  2.87576520E-18
 -1.92011415E-16  5.01520641E-01  0.00000000E+00  0.00000000E+00  0.00000000E+00
  1.00000000E+00 -1.96035394E-02 -9.90566921E-02  8.04169912E-02  1.10885915E-01
 -1.74080272E-17 -1.32349980E-01  1.66208554E-01  3.93463014E-01 -3.59794985E-17
 -5.35922237E-21  0.00000000E+00  0.00000000E+00  5.01520641E-01  0.00000000E+00
  0.00000000E+00  0.00000000E+00  1.00000000E+00 -1.74690821E-17 -8.82712784E-17
  7.16610909E-17 -1.74080272E-17  1.30420940E-01 -1.17939553E-16  1.48111563E-16
 -3.59794985E-17  4.33838662E-01  0.00000000E+00  7.48723342E-34  0.00000000E+00
  0.00000000E+00  5.01520641E-01  0.00000000E+00  0.00000000E+00  0.00000000E+00
  1.00000000E+00  3.05105350E-02  2.26720536E-01  1.26714258E-01  2.36398249E-01
  3.15834762E-16  4.08822517E-01  2.72700103E-01  5.08749589E-01  6.79703874E-16
  1.95152734E-04  7.80722963E-03  1.36246936E-02  4.38549650E-03  6.93723910E-18
  7.77020047E-02  1.91325701E-01  6.15836376E-02  9.74166593E-17  1.00000000E+00
  6.65482677E-02  3.68569425E-01  6.99236282E-02  1.30449592E-01  1.74284353E-16
  6.68340598E-01  2.29664858E-01  4.28462992E-01  5.72438704E-16  1.72814942E-02
  1.13697290E-01  7.86760192E-02  2.53241223E-02  4.00592022E-17  2.82667497E-01
  3.62623580E-01  1.16720749E-01  1.84635820E-16  6.58292049E-01  1.00000000E+00
  1.95136985E-04  7.80681220E-03 -1.36240564E-02 -4.38518838E-03 -6.93678230E-18
  7.76999466E-02 -1.91322115E-01 -6.15810364E-02 -9.74129744E-17  3.05106933E-02
  2.26721336E-01 -1.26718486E-01 -2.36396798E-01 -3.15833303E-16  4.08823210E-01
 -2.72708599E-01 -5.08745345E-01 -6.79699234E-16  2.31640960E-04  2.53735193E-02
  1.00000000E+00  1.72811206E-02  1.13695145E-01 -7.86751276E-02 -2.53232403E-02
 -4.00579839E-17  2.82663596E-01 -3.62621436E-01 -1.16717317E-01 -1.84631205E-16
  6.65483588E-02  3.68569865E-01 -6.99257725E-02 -1.30448440E-01 -1.74283078E-16
  6.68341182E-01 -2.29671821E-01 -4.28459059E-01 -5.72434318E-16  2.53735193E-02
  1.34566091E-01  6.58292049E-01  1.00000000E+00
Kinetic Energy Matrix                      R   N=         253
  2.95401398E+01 -2.18540273E+00  1.71121096E+00  0.00000000E+00  0.00000000E+00
  4.25187706E+00  0.00000000E+00  0.00000000E+00  0.00000000E+00  4.25187706E+00
  0.00000000E+00  0.00000000E+00  0.00000000E+00  0.00000000E+00  4.25187706E+00
  1.31282499E-01  4.80047821E-01  0.00000000E+00  0.00000000E+00  0.00000000E+00
  4.05008700E-01  0.00000000E+00  0.00000000E+00  5.47243224E-01  0.00000000E+00
  0.00000000E+00  0.00000000E+00  6.75014500E-01  0.00000000E+00  0.00000000E+00
  0.00000000E+00  5.47243224E-01  0.00000000E+00  0.00000000E+00  0.00000000E+00
  6.75014500E-01  0.00000000E+00  0.00000000E+00  0.00000000E+00  0.00000000E+00
  5.47243224E-01  0.00000000E+00  0.00000000E+00  0.00000000E+00  6.75014500E-01
 -1.98847253E-07 -1.23706140E-02  2.59706400E-02 -6.30882952E-03 -5.62191646E-18
 -2.04609084E-03 -3.72194803E-02  9.04141588E-03  8.05697547E-18  2.95401398E+01
 -1.23706140E-02 -8.01037194E-02  6.21236565E-02 -1.50911783E-02 -1.34480324E-17
  1.77055544E-02 -2.06468873E-01  5.01557499E-02  4.46947305E-17 -2.18540273E+00
  1.71121096E+00 -2.59706400E-02 -6.21236565E-02 -2.38653469E-02 -1.10138329E-05
 -9.81463334E-21  8.19923383E-02 -2.44554255E-01  7.52677581E-02  6.70725126E-17
  0.00000000E+00  0.00000000E+00  4.25187706E+00  6.30882952E-03  1.50911783E-02
 -1.10138329E-05 -2.39080104E-02  2.38418648E-21 -1.99177104E-02  7.52677581E-02
  4.70054017E-02 -1.62933624E-17  0.00000000E+00  0.00000000E+00  0.00000000E+00
  4.25187706E+00  5.62191646E-18  1.34480324E-17 -9.81463334E-21  2.38418648E-21
 -2.39106859E-02 -1.77490457E-17  6.70725126E-17 -1.62933624E-17  6.52895662E-02
  0.00000000E+00  0.00000000E+00  0.00000000E+00  0.00000000E+00  4.25187706E+00
 -2.04609084E-03  1.77055544E-02 -8.19923383E-02  1.99177104E-02  1.77490457E-17
  7.78877342E-02 -2.44919597E-01  5.94962615E-02  5.30182358E-17  1.31282499E-01
  4.80047821E-01  0.00000000E+00  0.00000000E+00  0.00000000E+00  4.05008700E-01
  3.72194803E-02  2.06468873E-01 -2.44554255E-01  7.52677581E-02  6.70725126E-17
  2.44919597E-01 -2.97289460E-01  1.19594229E-01  1.06572663E-16  0.00000000E+00
  0.00000000E+00  5.47243224E-01  0.00000000E+00  0.00000000E+00  0.00000000E+00
  6.75014500E-01 -9.04141588E-03 -5.01557499E-02  7.52677581E-02  4.70054017E-02
 -1.62933624E-17 -5.94962615E-02  1.19594229E-01  1.65974667E-01 -2.58888023E-17
  0.00000000E+00  0.00000000E+00  0.00000000E+00  5.47243224E-01  0.00000000E+00
  0.00000000E+00  0.00000000E+00  6.75014500E-01 -8.05697547E-18 -4.46947305E-17
  6.70725126E-17 -1.62933624E-17  6.52895662E-02 -5.30182358E-17  1.06572663E-16
 -2.58888023E-17  1.95026689E-01  0.00000000E+00  0.00000000E+00  0.00000000E+00
  0.00000000E+00  5.47243224E-01  0.00000000E+00  0.00000000E+00  0.00000000E+00
  6.75014500E-01 -2.35663103E-02  2.57407760E-03  8.85086485E-02  1.65121825E-01
  2.20607439E-16  1.29454184E-01  1.94086713E-01  3.62088368E-01  4.83760325E-16
 -1.29278400E-03 -1.95853925E-02 -2.56756331E-02 -8.26443532E-03 -1.30731751E-17
 -2.54030497E-02  1.04727576E-02  3.37095593E-03  5.33237850E-18  1.39567828E+00
  1.99140188E-02  1.03429713E-01  3.95062407E-02  7.37028828E-02  9.84691409E-17
  1.54706223E-01  9.95400967E-02  1.85702106E-01  2.48103278E-16 -2.20091782E-03
 -4.98884019E-03  1.78580610E-02  5.74812660E-03  9.09272841E-18  1.63117280E-02
  9.41526285E-02  3.03057107E-02  4.79393749E-17  2.59735083E-01  2.41916700E-01
 -1.29269801E-03 -1.95846686E-02  2.56749753E-02  8.26402944E-03  1.30725908E-17
 -2.54031624E-02 -1.04705992E-02 -3.37018203E-03 -5.33117782E-18 -2.35662685E-02
  2.57470686E-03 -8.85119984E-02 -1.65121552E-01 -2.20607409E-16  1.29454678E-01
 -1.94092948E-01 -3.62085698E-01 -4.83757491E-16 -9.62744796E-04 -1.15768514E-02
  1.39567828E+00 -2.20098843E-03 -4.98933920E-03 -1.78574333E-02 -5.74778953E-03
 -9.09223532E-18  1.63107152E-02 -9.41510614E-02 -3.03044943E-02 -4.79376623E-17
  1.99140749E-02  1.03429957E-01 -3.95074763E-02 -7.37022767E-02 -9.84684804E-17
  1.54706476E-01 -9.95431554E-02 -1.85700477E-01 -2.48101478E-16 -1.15768514E-02
 -1.09749619E-02  2.59735083E-01  2.41916700E-01
Nuclear Attraction Matrix                  R   N=         253
 -6.55204425E+01 -5.86777354E+00 -1.45703090E+01  8.73262957E-02  5.95953100E-01
 -1.58385907E+01 -3.86376156E-02 -2.63346285E-01  2.56820941E-02 -1.56319446E+01
 -4.12897616E-17 -2.81350635E-16  5.86511912E-18 -9.65572108E-17 -1.55548778E+01
 -5.99408521E+00 -1.01131930E+01  5.80640271E-01 -2.53195280E-01 -2.69773235E-16
 -1.06137053E+01  1.20334060E-02  3.96082196E-01 -5.96749373E+00  2.91619921E-02
  9.88555018E-18  1.09230518E+00 -8.96561868E+00 -5.32419369E-03 -1.72269988E-01
  2.91619921E-02 -5.75234157E+00 -9.13479467E-17 -4.17940331E-01  1.57110736E-01
 -8.04268282E+00 -5.68965462E-18 -1.83451449E-16  9.88555018E-18 -9.13479467E-17
 -5.67907043E+00 -4.32504091E-16  9.40168816E-17 -2.48001732E-16 -7.83795702E+00
 -2.85013420E-08 -5.02073893E-02  1.44729876E-01 -3.51347971E-02 -3.13001383E-17
 -1.16698210E+00  2.87361105E+00 -6.97610622E-01 -6.21476158E-16 -6.55204448E+01
 -5.02073871E-02 -7.08323494E-01  1.18942075E+00 -2.89084375E-01 -2.57666925E-16
 -2.76574445E+00  5.48804726E+00 -1.32070653E+00 -1.17200199E-15 -5.86777407E+00
 -1.45703113E+01 -1.44729869E-01 -1.18942077E+00  1.79066712E+00 -5.10352373E-01
 -4.55443344E-16 -2.16363080E+00  2.75915313E+00 -1.03336531E+00 -9.22121026E-16
 -8.73260234E-02 -5.95951249E-01 -1.58385941E+01  3.51347951E-02  2.89084287E-01
 -5.10352220E-01 -1.80260187E-01  1.09322624E-16  5.44361149E-01 -1.08050522E+00
 -1.23271590E+00  2.16270484E-16  3.86374390E-02  2.63345078E-01  2.56811339E-02
 -1.56319459E+01  3.13001363E-17  2.57666810E-16 -4.55443148E-16  1.09322610E-16
 -3.03337286E-01  4.92478690E-16 -9.82684990E-16  2.20778309E-16 -1.48147272E+00
  4.12895608E-17  2.81349261E-16  5.86376327E-18 -9.65562911E-17 -1.55548800E+01
 -1.16698204E+00 -2.76574433E+00  2.16363082E+00 -5.44361663E-01 -4.92479349E-16
 -4.83119246E+00  6.06713735E+00 -1.47383958E+00 -1.31336645E-15 -5.99408559E+00
 -1.01131947E+01 -5.80638535E-01  2.53194096E-01  2.69771880E-16 -1.06137074E+01
 -2.87361089E+00 -5.48804694E+00  2.75915344E+00 -1.08050620E+00 -9.82686230E-16
 -6.06713738E+00  2.92745684E+00 -1.65768362E+00 -1.50627001E-15 -1.20333684E-02
 -3.96081020E-01 -5.96749591E+00  2.91611087E-02  9.88430133E-18 -1.09230292E+00
 -8.96562330E+00  6.97610577E-01  1.32070607E+00 -1.03336501E+00 -1.23271584E+00
  2.20778274E-16  1.47383790E+00 -1.65768151E+00 -3.23759760E+00  2.97346480E-16
  5.32416936E-03  1.72269180E-01  2.91611087E-02 -5.75234178E+00 -9.13470401E-17
  4.17938180E-01  1.57108431E-01 -8.04268231E+00  6.21476116E-16  1.17200144E-15
 -9.22120623E-16  2.16270326E-16 -1.48147261E+00  1.31336430E-15 -1.50626730E-15
  2.97346279E-16 -3.59241955E+00  5.68962695E-18  1.83450522E-16  9.88430133E-18
 -9.13470401E-17 -5.67907141E+00  4.32501544E-16  9.40136227E-17 -2.47999359E-16
 -7.83795853E+00 -1.04998468E+00 -2.74256976E+00 -1.32026606E+00 -2.67282955E+00
 -3.56022526E-15 -3.84188073E+00 -2.11262450E+00 -4.24829401E+00 -5.66010615E-15
 -5.82381061E-03 -9.21025191E-02 -1.60484844E-01 -4.21486628E-02 -6.94979710E-17
 -7.66205942E-01 -1.85382727E+00 -4.71893054E-01 -7.83549385E-16 -8.42713348E+00
 -2.35524935E+00 -4.66663096E+00 -4.97991079E-01 -1.55170605E+00 -2.04120745E-15
 -6.20465684E+00 -9.76467209E-01 -3.32694687E+00 -4.36773967E-15 -6.06274812E-01
 -1.45942904E+00 -1.00970525E+00 -2.31905401E-01 -3.94499849E-16 -2.81016556E+00
 -3.54327121E+00 -6.77920029E-01 -1.20980245E-15 -5.16213850E+00 -6.84272593E+00
 -5.82332700E-03 -9.20976787E-02  1.60477564E-01  4.21455525E-02  6.94932789E-17
 -7.66186887E-01  1.85379468E+00  4.71871560E-01  7.83518655E-16 -1.04999026E+00
 -2.74257811E+00  1.32031354E+00  2.67281211E+00  3.56020740E-15 -3.84188398E+00
  2.11269469E+00  4.24825426E+00  5.66006179E-15 -3.02619957E-03 -2.59804976E-01
 -8.42712554E+00 -6.06261576E-01 -1.45940145E+00  1.00969344E+00  2.31896188E-01
  3.94486883E-16 -2.81012811E+00  3.54325074E+00  6.77894957E-01  1.20976828E-15
 -2.35525271E+00 -4.66663557E+00  4.98016274E-01  1.55169257E+00  2.04119255E-15
 -6.20465724E+00  9.76523018E-01  3.32691423E+00  4.36770307E-15 -2.59804617E-01
 -1.28404328E+00 -5.16213294E+00 -6.84271603E+00
Core Hamiltonian Matrix                    R   N=         253
 -3.59803027E+01 -8.05317627E+00 -1.28590980E+01  8.73262957E-02  5.95953100E-01
 -1.15867137E+01 -3.86376156E-02 -2.63346285E-01  2.56820941E-02 -1.13800675E+01
 -4.12897616E-17 -2.81350635E-16  5.86511912E-18 -9.65572108E-17 -1.13030008E+01
 -5.86280271E+00 -9.63314513E+00  5.80640271E-01 -2.53195280E-01 -2.69773235E-16
 -1.02086966E+01  1.20334060E-02  3.96082196E-01 -5.42025051E+00  2.91619921E-02
  9.88555018E-18  1.09230518E+00 -8.29060418E+00 -5.32419369E-03 -1.72269988E-01
  2.91619921E-02 -5.20509835E+00 -9.13479467E-17 -4.17940331E-01  1.57110736E-01
 -7.36766832E+00 -5.68965462E-18 -1.83451449E-16  9.88555018E-18 -9.13479467E-17
 -5.13182721E+00 -4.32504091E-16  9.40168816E-17 -2.48001732E-16 -7.16294252E+00
 -2.27348595E-07 -6.25780032E-02  1.70700516E-01 -4.14436266E-02 -3.69220547E-17
 -1.16902819E+00  2.83639157E+00 -6.88569206E-01 -6.13419182E-16 -3.59803050E+01
 -6.25780011E-02 -7.88427213E-01  1.25154440E+00 -3.04175554E-01 -2.71114957E-16
 -2.74803890E+00  5.28157839E+00 -1.27055078E+00 -1.12730726E-15 -8.05317680E+00
 -1.28591003E+01 -1.70700509E-01 -1.25154442E+00  1.76680178E+00 -5.10363386E-01
 -4.55453159E-16 -2.08163846E+00  2.51459887E+00 -9.58097552E-01 -8.55048513E-16
 -8.73260234E-02 -5.95951249E-01 -1.15867171E+01  4.14436246E-02  3.04175465E-01
 -5.10363234E-01 -2.04168198E-01  1.09325009E-16  5.24443439E-01 -1.00523746E+00
 -1.18571050E+00  1.99977121E-16  3.86374390E-02  2.63345078E-01  2.56811339E-02
 -1.13800689E+01  3.69220528E-17  2.71114842E-16 -4.55452963E-16  1.09324994E-16
 -3.27247972E-01  4.74729645E-16 -9.15612477E-16  2.04484947E-16 -1.41618316E+00
  4.12895608E-17  2.81349261E-16  5.86376327E-18 -9.65562911E-17 -1.13030029E+01
 -1.16902813E+00 -2.74803877E+00  2.08163848E+00 -5.24443953E-01 -4.74730303E-16
 -4.75330473E+00  5.82221775E+00 -1.41434332E+00 -1.26034822E-15 -5.86280309E+00
 -9.63314687E+00 -5.80638535E-01  2.53194096E-01  2.69771880E-16 -1.02086987E+01
 -2.83639141E+00 -5.28157807E+00  2.51459918E+00 -1.00523844E+00 -9.15613717E-16
 -5.82221778E+00  2.63016738E+00 -1.53808940E+00 -1.39969735E-15 -1.20333684E-02
 -3.96081020E-01 -5.42025268E+00  2.91611087E-02  9.88430133E-18 -1.09230292E+00
 -8.29060880E+00  6.88569161E-01  1.27055032E+00 -9.58097254E-01 -1.18571044E+00
  2.04484912E-16  1.41434164E+00 -1.53808728E+00 -3.07162293E+00  2.71457678E-16
  5.32416936E-03  1.72269180E-01  2.91611087E-02 -5.20509856E+00 -9.13470401E-17
  4.17938180E-01  1.57108431E-01 -7.36766781E+00  6.13419141E-16  1.12730671E-15
 -8.55048110E-16  1.99976964E-16 -1.41618305E+00  1.26034607E-15 -1.39969464E-15
  2.71457476E-16 -3.39739287E+00  5.68962695E-18  1.83450522E-16  9.88430133E-18
 -9.13470401E-17 -5.13182819E+00  4.32501544E-16  9.40136227E-17 -2.47999359E-16
 -7.16294403E+00 -1.07355099E+00 -2.73999569E+00 -1.23175741E+00 -2.50770773E+00
 -3.33961783E-15 -3.71242655E+00 -1.91853778E+00 -3.88620564E+00 -5.17634582E-15
 -7.11659461E-03 -1.11687912E-01 -1.86160477E-01 -5.04130981E-02 -8.25711461E-17
 -7.91608992E-01 -1.84335451E+00 -4.68522098E-01 -7.78217007E-16 -7.03145519E+00
 -2.33533533E+00 -4.56320125E+00 -4.58484838E-01 -1.47800316E+00 -1.94273831E-15
 -6.04995062E+00 -8.76927112E-01 -3.14124477E+00 -4.11963639E-15 -6.08475730E-01
 -1.46441788E+00 -9.91847194E-01 -2.26157274E-01 -3.85407120E-16 -2.79385383E+00
 -3.44911858E+00 -6.47614318E-01 -1.16186307E-15 -4.90240342E+00 -6.60080923E+00
 -7.11602500E-03 -1.11682347E-01  1.86152539E-01  5.04095820E-02  8.25658697E-17
 -7.91590049E-01  1.84332408E+00  4.68501378E-01  7.78187477E-16 -1.07355653E+00
 -2.74000340E+00  1.23180155E+00  2.50769056E+00  3.33959999E-15 -3.71242930E+00
  1.91860174E+00  3.88616856E+00  5.17630430E-15 -3.98894437E-03 -2.71381827E-01
 -7.03144726E+00 -6.08462565E-01 -1.46439079E+00  9.91836008E-01  2.26148399E-01
  3.85394647E-16 -2.79381739E+00  3.44909968E+00  6.47590463E-01  1.16183061E-15
 -2.33533863E+00 -4.56320561E+00  4.58508798E-01  1.47799030E+00  1.94272407E-15
 -6.04995076E+00  8.76979862E-01  3.14121376E+00  4.11960159E-15 -2.71381469E-01
 -1.29501824E+00 -4.90239786E+00 -6.60079933E+00
Multipole Matrix (1,0,0)                   R   N=         253
  1.20840765E+00  2.82392670E-01  1.20840765E+00  7.27077806E-02  4.96075284E-01
  1.20840765E+00  0.00000000E+00  0.00000000E+00  0.00000000E+00  1.20840765E+00
  0.00000000E+00  0.00000000E+00  0.00000000E+00  0.00000000E+00  1.20840765E+00
  2.02142141E-01  9.22789352E-01  4.82583279E-01  0.00000000E+00  0.00000000E+00
  1.20840765E+00  1.00190010E-02  3.29089724E-01  6.06041379E-01  0.00000000E+00
  0.00000000E+00  9.62240114E-01  1.20840765E+00  0.00000000E+00  0.00000000E+00
  0.00000000E+00  6.06041379E-01  0.00000000E+00  0.00000000E+00  0.00000000E+00
  1.20840765E+00  0.00000000E+00  0.00000000E+00  0.00000000E+00  0.00000000E+00
  6.06041379E-01  0.00000000E+00  0.00000000E+00  0.00000000E+00  1.20840765E+00
  3.01615081E-15 -1.57872007E-03  4.51601958E-03 -1.06582767E-03 -9.49779051E-19
 -3.75620425E-02  9.34297098E-02 -2.22071535E-02 -1.97892115E-17 -1.20840476E+00
  1.57872502E-03  7.73580880E-08  1.35481602E-02  1.20971093E-03  1.07799612E-18
 -1.40648875E-01  3.61628877E-01 -6.63613100E-02 -5.91358095E-17 -2.82391994E-01
 -1.20840476E+00  4.51603323E-03  1.35484171E-02 -1.91968371E-07  7.44198474E-03
  6.63169235E-18  4.87567975E-03 -4.24372806E-02  1.92903392E-03  1.71899835E-18
  7.27077806E-02  4.96075284E-01 -1.20840476E+00 -1.06583099E-03  1.20964851E-03
 -7.44187366E-03  2.31814096E-08 -1.20233141E-23  2.93013448E-02 -7.46405711E-02
 -8.15492564E-02  1.29208117E-17  0.00000000E+00  0.00000000E+00  0.00000000E+00
 -1.20840476E+00 -9.49782007E-19  1.07794050E-18 -6.63159336E-18 -1.20233141E-23
  3.66737907E-08  2.61109786E-17 -6.65136145E-17  1.29208117E-17 -9.60487956E-02
  0.00000000E+00  0.00000000E+00  0.00000000E+00  0.00000000E+00 -1.20840476E+00
  3.75621385E-02  1.40649477E-01  4.87520589E-03  2.93014599E-02  2.61110811E-17
  6.27592301E-07  4.17456176E-01  1.91457876E-07  1.70611708E-22 -2.02141657E-01
 -9.22787143E-01  4.82583279E-01  0.00000000E+00  0.00000000E+00 -1.20840476E+00
  9.34299433E-02  3.61630057E-01  4.24367002E-02  7.46408038E-02  6.65138218E-17
  4.17457752E-01 -3.62182936E-07  1.27352701E-01  1.13486383E-16  1.00190010E-02
  3.29089724E-01 -6.06039928E-01  0.00000000E+00  0.00000000E+00  9.62240114E-01
 -1.20840476E+00 -2.22072103E-02 -6.63615966E-02 -1.92880126E-03  8.15495773E-02
 -1.29208620E-17 -1.91457876E-07 -1.27352220E-01  5.69184768E-07 -5.20480497E-23
  0.00000000E+00  0.00000000E+00  0.00000000E+00 -6.06039928E-01  0.00000000E+00
  0.00000000E+00  0.00000000E+00 -1.20840476E+00 -1.97892621E-17 -5.91360648E-17
 -1.71879102E-18 -1.29208620E-17  9.60491730E-02 -1.70611708E-22 -1.13485954E-16
 -5.20480497E-23  6.27592301E-07  0.00000000E+00  0.00000000E+00  0.00000000E+00
  0.00000000E+00 -6.06039928E-01  0.00000000E+00  0.00000000E+00  0.00000000E+00
 -1.20840476E+00  3.88245481E-02  3.59766355E-01  3.00122484E-01  3.69620646E-01
  4.93823661E-16  7.56427235E-01  7.21659816E-01  9.43977302E-01  1.26118044E-15
 -1.85856620E-04  6.70853201E-04  3.88463824E-03  2.17874617E-04  3.44647022E-19
  9.02057926E-02  2.66831251E-01  7.23018278E-02  1.14371330E-16  2.09264431E+00
  8.15370871E-02  4.92612262E-01  3.37501063E-01  1.72270274E-01  2.30157970E-16
  1.02862063E+00  1.15870227E+00  6.59433040E-01  8.81021237E-16 -1.97905442E-02
 -8.34035292E-02  1.20676790E-02 -1.98992864E-02 -3.14778744E-17  7.35420692E-03
  3.49999016E-01  3.03674299E-03  4.80370060E-18  1.37757111E+00  2.09264431E+00
  1.85841734E-04 -6.70870688E-04  3.88453030E-03  2.17890940E-04  3.44674364E-19
 -9.02046036E-02  2.66828897E-01  7.22997262E-02  1.14368510E-16 -3.88247189E-02
 -3.59769515E-01  3.00130433E-01  3.69620183E-01  4.93823792E-16 -7.56435066E-01
  7.21680350E-01  9.43977656E-01  1.26118282E-15 -2.68074002E-09 -3.27554681E-02
 -2.09266745E+00  1.97901576E-02  8.34018642E-02  1.20669987E-02 -1.98985808E-02
 -3.14768971E-17 -7.35603998E-03  3.49996742E-01  3.03745250E-03  4.80484416E-18
 -8.15370391E-02 -4.92613175E-01  3.37504222E-01  1.72268805E-01  2.30156357E-16
 -1.02862610E+00  1.15871526E+00  6.59429921E-01  8.81018404E-16  3.27548808E-02
 -1.55730967E-06 -1.37758634E+00 -2.09266745E+00
Multipole Matrix (0,1,0)                   R   N=         253
 -2.93548895E-01 -6.85994136E-02 -2.93548895E-01  0.00000000E+00  0.00000000E+00
 -2.93548895E-01  7.27077806E-02  4.96075284E-01  0.00000000E+00 -2.93548895E-01
  0.00000000E+00  0.00000000E+00  0.00000000E+00  0.00000000E+00 -2.93548895E-01
 -4.91047885E-02 -2.24165905E-01  0.00000000E+00  4.82583279E-01  0.00000000E+00
 -2.93548895E-01  0.00000000E+00  0.00000000E+00 -1.47220830E-01  0.00000000E+00
  0.00000000E+00  0.00000000E+00 -2.93548895E-01  1.00190010E-02  3.29089724E-01
  0.00000000E+00 -1.47220830E-01  0.00000000E+00  9.62240114E-01  0.00000000E+00
 -2.93548895E-01  0.00000000E+00  0.00000000E+00  0.00000000E+00  0.00000000E+00
 -1.47220830E-01  0.00000000E+00  0.00000000E+00  0.00000000E+00 -2.93548895E-01
 -1.92057731E-15  3.83504240E-04 -1.06582498E-03  3.87393900E-04  2.30721269E-19
  9.12461272E-03 -2.22071076E-02  7.40734034E-03  4.80721706E-18  2.93547052E-01
 -3.83507388E-04 -4.92588727E-08  1.20976153E-03  1.82341238E-02 -2.61879501E-19
  3.41665316E-02 -6.63610777E-02  1.04569474E-01  1.43653154E-17  6.85989831E-02