
Running Job 1 of 1 input
qchem input_22276.0 /aimm/scratch/qchem22276/ 1
/home/epif/aimm/qcprog.exe_s input_22276.0 /aimm/scratch/qchem22276/
8388608
                  Welcome to Q-Chem
     A Quantum Leap Into The Future Of Chemistry


 Q-Chem 6.1, Q-Chem, Inc., Pleasanton, CA (2023)

 E. Epifanovsky,  A. T. B. Gilbert,  Xintian Feng,  Joonho Lee,  Yuezhi Mao,  
 N. Mardirossian,  P. Pokhilko,  A. White,  M. Wormit,  M. P. Coons,  
 A. L. Dempwolff,  Zhengting Gan,  D. Hait,  P. R. Horn,  L. D. Jacobson,  
 I. Kaliman,  J. Kussmann,  A. W. Lange,  Ka Un Lao,  D. S. Levine,  Jie Liu,  
 S. C. McKenzie,  A. F. Morrison,  K. D. Nanda,  F. Plasser,  D. R. Rehn,  
 M. L. Vidal,  Zhi-Qiang You,  Ying Zhu,  B. Alam,  B. Albrecht,  
 A. Aldossary,  E. Alguire,  J. H. Andersen,  V. Athavale,  D. Barton,  
 K. Begam,  A. Behn,  N. Bellonzi,  Y. A. Bernard,  E. J. Berquist,  
 H. Burton,  A. Carreras,  K. Carter-Fenk,  Mathew Chow,  Romit Chakraborty,  
 Chandrima Chakravarty,  Junhan Chen,  A. D. Chien,  K. D. Closser,  
 V. Cofer-Shabica,  L. Cunha,  S. Dasgupta,  Jia Deng,  M. de Wergifosse,  
 M. Diedenhofen,  Hainam Do,  S. Ehlert,  Po-Tung Fang,  S. Fatehi,  
 Qingguo Feng,  T. Friedhoff,  Thomas Froitzheim,  B. Ganoe,  J. Gayvert,  
 Qinghui Ge,  G. Gidofalvi,  M. Gimferrer,  M. Goldey,  Montgomery Gray,  
 J. Gomes,  C. Gonzalez-Espinoza,  S. Gulania,  A. Gunina,  J. A. Gyamfi,  
 M. W. D. Hanson-Heine,  P. H. P. Harbach,  A. W. Hauser,  M. F. Herbst,  
 M. Hernandez Vera,  M. Hodecker,  Z. C. Holden,  S. Houck,  Xunkun Huang,  
 Kerwin Hui,  B. C. Huynh,  K. Ikeda,  M. Ivanov,  Hyunjun Ji,  Zuxin Jin,  
 Hanjie Jiang,  Subrata Jana,  B. Kaduk,  S. Kaehler,  R. Kang,  
 K. Khistyaev,  Jaehoon Kim,  Yongbin Kim,  P. Klunzinger,  Z. Koczor-Benda,  
 Joong Hoon Koh,  D. Kosenkov,  Saikiran Kotaru,  L. Koulias,  T. Kowalczyk,  
 C. M. Krauter,  K. Kue,  A. Kunitsa,  T. Kus,  A. Landau,  K. V. Lawler,  
 D. Lefrancois,  S. Lehtola,  Rain Li,  Shaozhi Li,  Yi-Pei Li,  
 Jiashu Liang,  M. Liebenthal,  Hung-Hsuan Lin,  You-Sheng Lin,  Fenglai Liu,  
 Kuan-Yu Liu,  Xiao Liu,  M. Loipersberger,  A. Luenser,  C. Malbon,  
 A. Manjanath,  P. Manohar,  E. Mansoor,  S. F. Manzer,  Shan-Ping Mao,  
 A. V. Marenich,  T. Markovich,  S. Mason,  F. Matz,  S. A. Maurer,  
 P. F. McLaughlin,  M. F. S. J. Menger,  J.-M. Mewes,  S. A. Mewes,  
 P. Morgante,  Mohammad Mostafanejad,  J. W. Mullinax,  K. J. Oosterbaan,  
 G. Paran,  V. Parravicini,  Alexander C. Paul,  Suranjan K. Paul,  
 F. Pavosevic,  Zheng Pei,  S. Prager,  E. I. Proynov,  E. Ramos,  B. Rana,  
 A. E. Rask,  A. Rettig,  R. M. Richard,  F. Rob,  E. Rossomme,  T. Scheele,  
 M. Scheurer,  M. Schneider,  P. E. Schneider,  Tim K. Schramm,  N. Sergueev,  
 S. M. Sharada,  M. Sharma,  Hengyuan Shen,  W. Skomorowski,  D. W. Small,  
 C. J. Stein,  Alistair J. Sterling,  Yingli Su,  Yu-Chuan Su,  
 E. J. Sundstrom,  J. Talbot,  Zhen Tao,  J. Thirman,  Hung-Yi Tsai,  
 T. Tsuchimochi,  N. M. Tubman,  C. Utku,  S. P. Veccham,  O. Vydrov,  
 J. Wenzel,  Jonathan Wong,  J. Witte,  A. Yamada,  Chou-Hsun Yang,  Kun Yao,  
 S. Yeganeh,  S. R. Yost,  A. Zech,  F. Zeller,  Igor Ying Zhang,  
 Xing Zhang,  Yu Zhang,  D. Zuev,  A. Aspuru-Guzik,  A. T. Bell,  
 N. A. Besley,  K. B. Bravaya,  B. R. Brooks,  D. Casanova,  Jeng-Da Chai,  
 Hsing-Ta Chen,  S. Coriani,  C. J. Cramer,  A. E. DePrince, III,  
 R. A. DiStasio Jr.,  A. Dreuw,  B. D. Dunietz,  T. R. Furlani,  
 W. A. Goddard III,  S. Grimme,  S. Hammes-Schiffer,  T. Head-Gordon,  
 W. J. Hehre,  Chao-Ping Hsu,  T.-C. Jagau,  Yousung Jung,  A. Klamt,  
 Jing Kong,  D. S. Lambrecht,  Xiangyuan Li,  WanZhen Liang,  N. J. Mayhall,  
 C. W. McCurdy,  J. B. Neaton,  T. Neudecker,  C. Ochsenfeld,  
 J. A. Parkhill,  R. Peverati,  V. A. Rassolov,  Haisheng Ren,  Yihan Shao,  
 L. V. Slipchenko,  R. P. Steele,  J. E. Subotnik,  A. J. W. Thom,  
 A. Tkatchenko,  D. G. Truhlar,  T. Van Voorhis,  Fan Wang,  
 T. A. Wesolowski,  K. B. Whaley,  H. L. Woodcock III,  P. M. Zimmerman,  
 S. Faraji,  P. M. W. Gill,  M. Head-Gordon,  J. M. Herbert,  A. I. Krylov

 Contributors to earlier versions of Q-Chem not listed above: 
 R. D. Adamson,  B. Austin,  R. Baer,  J. Baker,  G. J. O. Beran,  
 K. Brandhorst,  S. T. Brown,  E. F. C. Byrd,  Arup K. Chakraborty,  
 G. K. L. Chan,  Chun-Min Chang,  Yunqing Chen,  C.-L. Cheng,  
 Siu Hung Chien,  D. M. Chipman,  D. L. Crittenden,  H. Dachsel,  
 R. J. Doerksen,  A. D. Dutoi,  R. G. Edgar,  J. Fosso-Tande,  
 L. Fusti-Molnar,  D. Ghosh,  A. Ghysels,  A. Golubeva-Zadorozhnaya,  
 J. Gonthier,  M. S. Gordon,  S. R. Gwaltney,  G. Hawkins,  J. E. Herr,  
 A. Heyden,  S. Hirata,  E. G. Hohenstein,  G. Kedziora,  F. J. Keil,  
 C. Kelley,  Jihan Kim,  R. A. King,  R. Z. Khaliullin,  P. P. Korambath,  
 W. Kurlancheek,  A. Laurent,  A. M. Lee,  M. S. Lee,  S. V. Levchenko,  
 Ching Yeh Lin,  D. Liotard,  E. Livshits,  R. C. Lochan,  I. Lotan,  
 L. A. Martinez-Martinez,  P. E. Maslen,  N. Nair,  D. P. O'Neill,  
 D. Neuhauser,  E. Neuscamman,  C. M. Oana,  R. Olivares-Amaya,  R. Olson,  
 T. M. Perrine,  B. Peters,  P. A. Pieniazek,  A. Prociuk,  Y. M. Rhee,  
 J. Ritchie,  M. A. Rohrdanz,  E. Rosta,  N. J. Russ,  H. F. Schaefer III,  
 M. W. Schmidt,  N. E. Schultz,  S. Sharma,  N. Shenvi,  C. D. Sherrill,  
 A. C. Simmonett,  A. Sodt,  T. Stein,  D. Stuck,  K. S. Thanthiriwatte,  
 V. Vanovschi,  L. Vogt,  Tao Wang,  A. Warshel,  M. A. Watson,  
 C. F. Williams,  Q. Wu,  X. Xu,  Jun Yang,  W. Zhang,  Yan Zhao

   Please cite Q-Chem as follows:
  "Software for the frontiers of quantum chemistry:
   An overview of developments in the Q-Chem 5 package"
   J. Chem. Phys. 155, 084801 (2021)
   https://doi.org/10.1063/5.0055522 (open access)

 Q-Chem 6.1.1 for Intel X86 EM64T Linux

 Parts of Q-Chem use Armadillo 9.900.5 (Nocturnal Misbehaviour).
 http://arma.sourceforge.net/

 Q-Chem begins on Wed Apr 24 16:21:04 2024  

 Host: iqmol
0

     Scratch files written to /aimm/scratch/qchem22276//
 Jan1824 |scratch|qcdevops|jenkins|workspace|build_RNUM 6466   
 Processing $rem in /opt/qchem/qc611/config/preferences:
 Processing $rem in /home/epif/.qchemrc:

 Checking the input file for inconsistencies... 	...done.

--------------------------------------------------------------
User input:
--------------------------------------------------------------
$molecule
0 1
O   -1.3108384    0.7595260    0.0000000
O   -0.7293600    1.9402229    0.0000000
H   -2.2807721    0.9600606    0.0000000
H    0.2405758    1.7397045    0.0000000
$end

$rem
BASIS  =  6-31G
GUI  =  2
JOB_TYPE  =  Frequency
METHOD  =  RevPBE
SCF_CONVERGENCE  =  8
$end

--------------------------------------------------------------
 ----------------------------------------------------------------
             Standard Nuclear Orientation (Angstroms)
    I     Atom           X                Y                Z
 ----------------------------------------------------------------
    1      O       0.6394617898    -0.1553393854    -0.0000000000
    2      O      -0.6394602588     0.1553384105     0.0000000000
    3      H       1.1073796766     0.7176086998     0.0000000000
    4      H      -1.1073919248    -0.7176009006    -0.0000000000
 ----------------------------------------------------------------
 Molecular Point Group                 Cs    NOp =  2
 Largest Abelian Subgroup              Cs    NOp =  2
 Nuclear Repulsion Energy =          39.09561218 hartrees
 There are        9 alpha and        9 beta electrons
 Requested basis set is 6-31G
 There are 10 shells and 22 basis functions

 Total QAlloc Memory Limit   8000 MB
 Mega-Array Size       204 MB
 MEM_STATIC part       192 MB


                       Distance Matrix (Angstroms)
             O (  1)   O (  2)   H (  3)
   O (  2)  1.316116
   H (  3)  0.990447  1.835102
   H (  4)  1.835112  0.990446  2.639136
 
 A cutoff of  1.0D-12 yielded     55 shell pairs
 There are       277 function pairs
 Smallest overlap matrix eigenvalue = 2.82E-02
 Guess from superposition of atomic densities
 Warning:  Energy on first SCF cycle will be non-variational
 SAD guess density has 18.000000 electrons

 -----------------------------------------------------------------------
  General SCF calculation program by
  Eric Jon Sundstrom, Paul Horn, Yuezhi Mao, Dmitri Zuev, Alec White,
  David Stuck, Shaama M.S., Shane Yost, Joonho Lee, David Small,
  Daniel Levine, Susi Lehtola, Hugh Burton, Evgeny Epifanovsky,
  Bang C. Huynh
 -----------------------------------------------------------------------
 Exchange:  revPBE      Correlation:  PBE
 Using SG-1 standard quadrature grid
 A restricted SCF calculation will be
 performed using DIIS
 SCF converges when DIIS error is below 1.0e-08
 ---------------------------------------
  Cycle       Energy         DIIS error
 ---------------------------------------
    1    -151.7642409642      1.90e-01  
    2    -151.3806603150      2.70e-02  
    3    -151.3555078396      3.66e-02  
    4    -151.4180759952      1.76e-03  
    5    -151.4182943358      1.80e-04  
    6    -151.4182965523      1.07e-05  
    7    -151.4182965581      9.66e-07  
    8    -151.4182965582      4.58e-08  
    9    -151.4182965582      2.17e-08  
   10    -151.4182965582      3.59e-09  Convergence criterion met
 ---------------------------------------
 SCF time:   CPU 0.36s  wall 0.00s 
 SCF   energy =  -151.41829656
 Total energy =  -151.41829656
 
 --------------------------------------------------------------
             Orbital Energies (a.u.) and Symmetries
 --------------------------------------------------------------
 
 Alpha MOs, Restricted
 -- Occupied --                  
-18.814 -18.814  -1.099  -0.797  -0.498  -0.439  -0.353  -0.266
  1 A'    2 A'    3 A'    4 A'    5 A'    6 A'    1 A"    7 A'                 
 -0.154
  2 A"                                                                         
 -- Virtual --                   
  0.034   0.043   0.122   0.727   0.749   0.816   0.818   0.920
  8 A'    9 A'   10 A'   11 A'   12 A'    3 A"   13 A'    4 A"                 
  0.942   1.020   1.041   1.343   1.575
 14 A'   15 A'   16 A'   17 A'   18 A'                                         
 
 Beta MOs, Restricted
 -- Occupied --                  
-18.814 -18.814  -1.099  -0.797  -0.498  -0.439  -0.353  -0.266
  1 A'    2 A'    3 A'    4 A'    5 A'    6 A'    1 A"    7 A'                 
 -0.154
  2 A"                                                                         
 -- Virtual --                   
  0.034   0.043   0.122   0.727   0.749   0.816   0.818   0.920
  8 A'    9 A'   10 A'   11 A'   12 A'    3 A"   13 A'    4 A"                 
  0.942   1.020   1.041   1.343   1.575
 14 A'   15 A'   16 A'   17 A'   18 A'                                         
 --------------------------------------------------------------
 
          Ground-State Mulliken Net Atomic Charges

     Atom                 Charge (a.u.)
  ----------------------------------------
      1 O                    -0.392553
      2 O                    -0.392556
      3 H                     0.392554
      4 H                     0.392554
  ----------------------------------------
  Sum of atomic charges =     0.000000

 -----------------------------------------------------------------
                    Cartesian Multipole Moments
 -----------------------------------------------------------------
    Charge (ESU x 10^10)
                -0.0000
    Dipole Moment (Debye)
         X      -0.0000      Y       0.0000      Z      -0.0000
       Tot       0.0000
    Quadrupole Moments (Debye-Ang)
        XX      -9.4362     XY       4.3258     YY     -10.0756
        XZ       0.0000     YZ       0.0000     ZZ     -12.5096
    Octopole Moments (Debye-Ang^2)
       XXX      -0.0001    XXY      -0.0000    XYY       0.0000
       YYY       0.0000    XXZ      -0.0000    XYZ       0.0000
       YYZ      -0.0000    XZZ      -0.0000    YZZ       0.0000
       ZZZ      -0.0000
    Hexadecapole Moments (Debye-Ang^3)
      XXXX     -34.2249   XXXY       5.6333   XXYY      -6.9006
      XYYY       3.4195   YYYY     -11.1069   XXXZ       0.0000
      XXYZ       0.0000   XYYZ       0.0000   YYYZ       0.0000
      XXZZ      -8.9218   XYZZ       0.7180   YYZZ      -3.5617
      XZZZ       0.0000   YZZZ      -0.0000   ZZZZ      -8.8037
 -----------------------------------------------------------------
 Calculating MO derivatives via CPSCF
    1     0    15    0.0670335  
    2     0    15    0.0025514  
    3     0    15    0.0001582  
    4    15     0    0.0000009  Converged
 Polarizability Matrix (a.u.)
            1           2           3
    1 -12.0733397  -2.7375255  -0.0000000
    2  -2.7375255  -9.2326202  -0.0000000
    3  -0.0000000  -0.0000000  -2.3696573
 Calculating analytic Hessian of the SCF energy
 
 Direct stationary perturbation theory relativistic correction:
 
 rels  =       0.058830638862
 relv  =      -0.234335948545
 rel2e =       0.000000000000
 E_rel =      -0.175505309683
 
 **********************************************************************
 **                                                                  **
 **                       VIBRATIONAL ANALYSIS                       **
 **                       --------------------                       **
 **                                                                  **
 **        VIBRATIONAL FREQUENCIES (CM**-1) AND NORMAL MODES         **
 **     FORCE CONSTANTS (mDYN/ANGSTROM) AND REDUCED MASSES (AMU)     **
 **                  INFRARED INTENSITIES (KM/MOL)                   **
 **                                                                  **
 **********************************************************************
 

 Mode:                 1                      2                      3
 Frequency:      -406.34                1323.92                1437.68
 Force Cnst:      0.1038                 1.1020                13.0081
 Red. Mass:       1.0671                 1.0671                10.6817
 IR Active:          YES                    YES                    YES
 IR Intens:      432.444                143.303                  0.000
 Raman Active:       YES                    YES                    YES
               X      Y      Z        X      Y      Z        X      Y      Z
 O          0.000 -0.000 -0.044   -0.039  0.022  0.000   -0.537  0.185 -0.000
 O         -0.000  0.000 -0.044   -0.039  0.022  0.000    0.537 -0.185 -0.000
 H         -0.000  0.000  0.706    0.618 -0.341 -0.000    0.267 -0.326  0.000
 H          0.000 -0.000  0.706    0.618 -0.341 -0.000   -0.267  0.326  0.000
 TransDip   0.000 -0.000  0.666    0.369 -0.104 -0.000   -0.000  0.000  0.000

 Mode:                 4                      5                      6
 Frequency:      1653.38                3432.22                3473.73
 Force Cnst:      1.9386                 7.4265                 7.5866
 Red. Mass:       1.2036                 1.0700                 1.0671
 IR Active:          YES                    YES                    YES
 IR Intens:        0.000                  0.000                 17.947
 Raman Active:       YES                    YES                    YES
               X      Y      Z        X      Y      Z        X      Y      Z
 O          0.052  0.062 -0.000   -0.026 -0.037  0.000   -0.021 -0.039 -0.000
 O         -0.052 -0.062 -0.000    0.026  0.037  0.000   -0.022 -0.039 -0.000
 H          0.652 -0.262  0.000    0.338  0.620 -0.000    0.341  0.618  0.000
 H         -0.652  0.262  0.000   -0.338 -0.619 -0.000    0.341  0.618  0.000
 TransDip   0.000  0.000  0.000    0.000  0.000 -0.000    0.132  0.032  0.000

 STANDARD THERMODYNAMIC QUANTITIES AT   298.15 K  AND     1.00 ATM

   This Molecule has  1 Imaginary Frequencies
   Zero point vibrational energy:       16.184 kcal/mol

   Atom    1 Element O  Has Mass   15.99491
   Atom    2 Element O  Has Mass   15.99491
   Atom    3 Element H  Has Mass    1.00783
   Atom    4 Element H  Has Mass    1.00783
   Molecular Mass:    34.005480 amu
   Principal axes and moments of inertia in amu*Bohr^2:
                             1           2           3
    Eigenvalues --        5.82623    56.17702    62.00325
          X               0.99365    -0.11248     0.00000
          Y              -0.11248    -0.99365    -0.00000
          Z              -0.00000    -0.00000     1.00000
   Rotational Symmetry Number is   1
   The Molecule is an Asymmetric Top
   Translational Enthalpy:        0.889 kcal/mol
   Rotational Enthalpy:           0.889 kcal/mol
   Vibrational Enthalpy:         16.196 kcal/mol
   gas constant (RT):             0.592 kcal/mol
   Translational Entropy:        36.503  cal/mol.K
   Rotational Entropy:           17.658  cal/mol.K
   Vibrational Entropy:           0.046  cal/mol.K

   Total Enthalpy:               18.566 kcal/mol
   Total Entropy:                54.206  cal/mol.K

   Quasi-RRHO corrections using alpha = 4, and omega = 100 cm^-1
   QRRHO-Vib. Enthalpy:          16.196 kcal/mol
   QRRHO-Vib. Entropy:            0.046  cal/mol.K
   QRRHO-Total Enthalpy:         18.566 kcal/mol
   QRRHO-Total Entropy:          54.207  cal/mol.K
 Total job time:  2.19s(wall), 2.17s(cpu) 
 Wed Apr 24 16:21:06 2024

        *************************************************************
        *                                                           *
        *  Thank you very much for using Q-Chem.  Have a nice day.  *
        *                                                           *
        *************************************************************


