Jobname.Temp
FREQ      R                             6-31G               
Number of atoms                            I                4
Charge                                     I                0
Multiplicity                               I                1
Number of electrons                        I               18
Number of alpha electrons                  I                9
Number of beta electrons                   I                9
Atomic numbers                             I   N=           4
           8           8           1           1
Current cartesian coordinates              R   N=          12
  1.20840195E+00 -2.93544683E-01  7.61451600E-17 -1.20840950E+00  2.93548628E-01
 -7.61457921E-17  2.09266581E+00  1.35606728E+00 -6.01961658E-18 -2.09260538E+00
 -1.35609884E+00  6.02467320E-18
Nuclear charges                            R   N=           4
  8.00000000E+00  8.00000000E+00  1.00000000E+00  1.00000000E+00
Number of basis functions                  I               22
Number of contracted shells                I               10
Number of primitive shells                 I               28
Highest angular momentum                   I                1
Largest degree of contraction              I                6
Shell types                                I   N=          10
           0          -1          -1           0          -1          -1
           0           0           0           0
Number of primitives per shell             I   N=          10
           6           3           1           6           3           1
           3           1           3           1
Shell to atom map                          I   N=          10
           1           1           1           2           2           2
           3           3           4           4
Primitive exponents                        R   N=          28
  5.48467170E+03  8.25234950E+02  1.88046960E+02  5.29645000E+01  1.68975700E+01
  5.79963530E+00  1.55396160E+01  3.59993360E+00  1.01376180E+00  2.70005800E-01
  5.48467170E+03  8.25234950E+02  1.88046960E+02  5.29645000E+01  1.68975700E+01
  5.79963530E+00  1.55396160E+01  3.59993360E+00  1.01376180E+00  2.70005800E-01
  1.87311370E+01  2.82539370E+00  6.40121700E-01  1.61277800E-01  1.87311370E+01
  2.82539370E+00  6.40121700E-01  1.61277800E-01
Contraction coefficients                   R   N=          28
  1.83109981E-03  1.39500985E-02  6.84450927E-02  2.32714275E-01  4.70192950E-01
  3.58520862E-01 -1.10777504E-01 -1.48026305E-01  1.13076704E+00  1.00000000E+00
  1.83109981E-03  1.39500985E-02  6.84450927E-02  2.32714275E-01  4.70192950E-01
  3.58520862E-01 -1.10777504E-01 -1.48026305E-01  1.13076704E+00  1.00000000E+00
  3.34945995E-02  2.34726947E-01  8.13757318E-01  1.00000000E+00  3.34945995E-02
  2.34726947E-01  8.13757318E-01  1.00000000E+00
P(S=P) Contraction coefficients            R   N=          28
  0.00000000E+00  0.00000000E+00  0.00000000E+00  0.00000000E+00  0.00000000E+00
  0.00000000E+00  7.08742995E-02  3.39752798E-01  7.27158595E-01  1.00000000E+00
  0.00000000E+00  0.00000000E+00  0.00000000E+00  0.00000000E+00  0.00000000E+00
  0.00000000E+00  7.08742995E-02  3.39752798E-01  7.27158595E-01  1.00000000E+00
  0.00000000E+00  0.00000000E+00  0.00000000E+00  0.00000000E+00  0.00000000E+00
  0.00000000E+00  0.00000000E+00  0.00000000E+00
Coordinates of each shell                  R   N=          30
  1.20840195E+00 -2.93544683E-01  7.61451600E-17  1.20840195E+00 -2.93544683E-01
  7.61451600E-17  1.20840195E+00 -2.93544683E-01  7.61451600E-17 -1.20840950E+00
  2.93548628E-01 -7.61457921E-17 -1.20840950E+00  2.93548628E-01 -7.61457921E-17
 -1.20840950E+00  2.93548628E-01 -7.61457921E-17  2.09266581E+00  1.35606728E+00
 -6.01961658E-18  2.09266581E+00  1.35606728E+00 -6.01961658E-18 -2.09260538E+00
 -1.35609884E+00  6.02467320E-18 -2.09260538E+00 -1.35609884E+00  6.02467320E-18
Orthonormalization Matrix                  R   N=         253
 -2.49671474E-03 -4.95293303E-02  7.86370542E-17 -3.67568579E-04  3.64185712E-03
  3.64334116E-04  1.61585616E-16  2.89750978E-02 -1.81761911E-03  1.10855615E-03
 -6.50268605E-01 -2.02288150E-02 -9.03592797E-17 -2.30074249E-02  1.12990862E+00
 -1.54872978E-16  2.34780420E-02 -2.93407237E-01 -9.65795289E-02 -1.20938072E-16
 -7.02004147E-16  9.25972893E-03  1.82987858E-16  9.03698374E-17  3.69734659E-16
  4.53484153E-17  1.24492292E-01  1.12207185E-01  2.34778163E-02 -9.10869473E-04
  8.49934836E-17 -1.00403400E-16 -7.40034271E-04 -7.29490691E-02 -6.56918627E-16
 -2.05879861E-01 -9.77854157E-17  1.27738187E-02  1.34294258E-02 -3.09205519E-02
 -7.29490691E-02 -1.27735091E-02 -3.45568278E-01  5.55911044E-02  7.53009439E-04
 -1.27735091E-02 -2.50986852E-16  9.62786141E-17  1.26927291E-16  9.19838350E-17
 -2.55232624E-02  4.77401573E-03 -3.31112735E-02  8.21908751E-17  4.86172460E-03
  1.56671813E-03 -1.07371300E-01  1.55350445E+00  1.32740319E-02 -2.30074249E-02
 -2.02641787E-01 -3.84415444E-01  2.31927665E-16 -3.14949684E-01  1.43721376E-17
  1.10840339E-03 -2.39606642E-16  1.12646692E-16 -1.02886260E+00 -1.12212435E-01
  1.45757478E-01  1.21543175E+00 -9.03592797E-17 -8.94305889E-17 -1.20754506E-16
 -1.02885912E+00  1.13493472E+00 -1.06475016E-16  2.79888969E-02 -2.39204542E-16
 -1.31955507E-02  4.65395568E-02  5.40749120E-02 -7.48790516E-03 -8.68582381E-03
 -1.07371300E-01 -4.95295432E-02 -5.15992606E-02  3.01413347E-02 -5.23992732E-02
 -9.26044388E-03 -1.84665425E-16  1.39875355E-01  7.48781913E-03  3.09197488E-02
  1.39507831E-02 -2.49665646E-03  3.75202046E-04 -4.71924523E-17  9.03698374E-17
  3.21243363E+00 -2.46663199E-03  2.34780420E-02 -7.40034271E-04  3.64185712E-03
 -5.15992606E-02 -6.28056799E-17  6.36065649E-16  7.55992258E-02 -2.47404621E-16
  2.05142351E-02 -2.46663199E-03 -1.03054626E+00 -3.19890474E-01  1.12990837E+00
 -2.61817711E-02 -2.05873059E-01 -3.78420174E-01 -1.57293409E-16  6.02762382E-01
  1.10840339E-03 -3.24797550E-16  3.36546539E-16  1.29548621E-16  5.37397320E-16
 -2.14455092E-01 -3.47489598E-01 -6.50268605E-01  1.82987858E-16  1.81758588E-03
 -7.02004147E-16 -1.00403400E-16  2.79888969E-02 -2.79923678E-01 -6.35589905E-01
  1.09590228E-02 -9.25735553E-17  3.75299546E-04  2.05142351E-02  1.02281830E+00
  4.38183855E-17  2.73261257E-02  1.03054801E+00  3.02242864E-16 -8.54690939E-02
 -2.02290800E-02 -4.06482389E-17  1.81758588E-03  7.53009439E-04  6.16389018E-04
 -8.68582381E-03 -2.02288150E-02  7.16431194E-01  1.69857782E-16  7.53842098E-17
  4.86170722E-03  9.25972893E-03 -9.14452896E-03 -1.45753817E-01  1.55428294E-16
  1.58908027E+00 -9.14452896E-03 -2.57542946E-02 -1.09594662E-02  2.81805266E-03
  1.12993199E-02  1.92177487E-01  2.22888235E-01 -7.16856633E-03  6.02762382E-01
 -3.24797550E-16  1.34291894E-02 -1.78454317E-16 -3.14949684E-01 -4.71924523E-17
 -8.46131307E-17  9.14901393E-03  1.13493547E+00 -3.09205519E-02 -2.89754363E-02
  2.05140720E-02 -2.47404621E-16  2.46812925E-03  5.46223464E-03  1.11943288E+00
 -1.31929368E-02 -3.47489598E-01 -1.66180071E-02  7.40026322E-04 -7.52888923E-04
  3.75202046E-04  5.40721253E-02  8.21908751E-17  1.10855615E-03 -1.66275119E-02
 -1.07371388E-01  1.69857782E-16 -1.57293409E-16 -9.26044388E-03 -1.81761911E-03
 -6.16335304E-04 -1.20938072E-16 -2.61840439E-02  3.64226648E-03 -1.32732553E-02
  1.12207185E-01  1.12993199E-02  1.92172535E-01 -9.77854157E-17 -1.07371388E-01
 -8.26739614E-17 -3.45568278E-01  1.10881224E-16  8.63038569E-02 -1.54872978E-16
  1.39874930E-01 -3.67568579E-04  2.01434309E-16 -3.01427235E-02 -3.70291627E-17
  1.61585616E-16  1.55428294E-16  8.49934836E-17  7.86370542E-17  7.29491096E-02
 -1.32732553E-02 -7.48790516E-03 -3.74135418E-16  2.31927665E-16  1.09590228E-02
  8.68584153E-03  7.48781913E-03  4.65423066E-02 -7.16856633E-03  2.73259386E-02
  2.30069787E-02  1.55350351E+00 -1.02885912E+00  3.75299546E-04  1.69260543E-17
 -9.10869473E-04 -1.68889026E-17  3.64226648E-03  1.39507831E-02  5.24029788E-02
  2.81818313E-03  2.30069787E-02 -1.45753817E-01  3.09197488E-02 -4.95293303E-02
 -6.16335304E-04  7.40026322E-04  1.02281829E+00
Overlap Matrix                             R   N=         253
  1.00000000E+00  2.33689906E-01  1.00000000E+00 -9.31715143E-19  0.00000000E+00
  1.00000000E+00 -9.53796529E-18  1.43833297E-16  0.00000000E+00  1.00000000E+00
  2.90575410E-33 -9.60765502E-33  0.00000000E+00 -1.94689485E-48  1.00000000E+00
  1.67279760E-01  7.63640773E-01 -1.63663542E-17  4.09158856E-18 -5.77963187E-33
  1.00000000E+00  2.19054414E-17  3.37195016E-18  5.01520641E-01 -9.44166796E-34
  0.00000000E+00  0.00000000E+00  1.00000000E+00 -1.75585464E-22 -8.42987540E-19
 -9.44166796E-34  5.01520641E-01  0.00000000E+00  0.00000000E+00  0.00000000E+00
  1.00000000E+00  1.96367548E-33  6.89628713E-34  0.00000000E+00  0.00000000E+00
  5.01520641E-01  0.00000000E+00  0.00000000E+00  0.00000000E+00  1.00000000E+00
  2.08503591E-09  1.70867144E-03 -4.71899127E-03  1.14634023E-03 -2.97358601E-19
  3.31757981E-02 -8.06991672E-02  1.96034908E-02 -5.08511038E-18  1.00000000E+00
  1.70867144E-03  5.34758906E-02 -8.88110691E-02  2.15740390E-02 -5.59626703E-18
  2.08312452E-01 -4.07772760E-01  9.90564072E-02 -2.56950544E-17  2.33689906E-01
  1.00000000E+00  4.71899127E-03  8.88110691E-02 -1.32703310E-01  3.83948354E-02
 -9.95955147E-18  1.63786223E-01 -2.00620056E-01  8.04167333E-02 -2.08599564E-17
  2.38631761E-16  1.73076126E-16  1.00000000E+00 -1.14634023E-03 -2.15740390E-02
  3.83948354E-02  1.60248700E-02  2.41938031E-18 -3.97870490E-02  8.04167333E-02
  1.10886276E-01  5.06731332E-18  1.47700011E-17 -1.94346863E-18 -1.22709492E-32
  1.00000000E+00  2.97358601E-19  5.59626703E-18 -9.95955147E-18  2.41938031E-18
  2.53517668E-02  1.03206892E-17 -2.08599564E-17  5.06731332E-18  1.30421158E-01
  3.29670655E-33 -3.84313897E-33  2.72469806E-48 -6.81174516E-49  1.00000000E+00
  3.31757981E-02  2.08312452E-01 -1.63786223E-01  3.97870490E-02 -1.03206892E-17
  4.33839113E-01 -5.44826246E-01  1.32349524E-01 -3.43312291E-17  1.67279760E-01
  7.63640773E-01  1.20482946E-16  0.00000000E+00 -1.23729106E-32  1.00000000E+00
  8.06991672E-02  4.07772760E-01 -2.00620056E-01  8.04167333E-02 -2.08599564E-17
  5.44826246E-01 -2.50367612E-01  1.66207914E-01 -4.31140350E-17 -3.28805795E-19
 -1.57951966E-17  5.01520641E-01  0.00000000E+00  2.09647143E-49  0.00000000E+00
  1.00000000E+00 -1.96034908E-02 -9.90564072E-02  8.04167333E-02  1.10886276E-01
  5.06731332E-18 -1.32349524E-01  1.66207914E-01  3.93463785E-01  1.04732876E-17
  3.36707223E-18  0.00000000E+00  0.00000000E+00  5.01520641E-01  0.00000000E+00
  0.00000000E+00  0.00000000E+00  1.00000000E+00  5.08511038E-18  2.56950544E-17
 -2.08599564E-17  5.06731332E-18  1.30421158E-01  3.43312291E-17 -4.31140350E-17
  1.04732876E-17  4.33839113E-01  1.94813624E-35 -1.08459555E-32  2.09647143E-49
  0.00000000E+00  5.01520641E-01  0.00000000E+00  0.00000000E+00  0.00000000E+00
  1.00000000E+00  3.05109127E-02  2.26722446E-01  1.26719340E-01  2.36397470E-01
 -1.17746148E-17  4.08824172E-01  2.72709606E-01  5.08745237E-01 -2.53398616E-17
  1.95137220E-04  7.80681842E-03  1.36240684E-02  4.38518525E-03  2.89421998E-19
  7.76999773E-02  1.91322203E-01  6.15809667E-02  4.06434059E-18  1.00000000E+00
  6.65484851E-02  3.68570474E-01  6.99259828E-02  1.30448323E-01 -6.49744157E-18
  6.68341992E-01  2.29672402E-01  4.28458472E-01 -2.13408944E-17  1.72811261E-02
  1.13695177E-01  7.86751553E-02  2.53232089E-02  1.67133047E-18  2.82663654E-01
  3.62621535E-01  1.16717162E-01  7.70332663E-18  6.58292049E-01  1.00000000E+00
  1.95180250E-04  7.80795891E-03 -1.36258223E-02 -4.38598668E-03 -2.89441738E-19
  7.77056002E-02 -1.91332185E-01 -6.15875059E-02 -4.06430662E-18  3.05109691E-02
  2.26722731E-01 -1.26709774E-01 -2.36402888E-01  1.17754464E-17  4.08824419E-01
 -2.72688804E-01 -5.08756498E-01  2.53416314E-17  2.31660925E-04  2.53744088E-02
  1.00000000E+00  1.72821469E-02  1.13701039E-01 -7.86776663E-02 -2.53253850E-02
 -1.67128265E-18  2.82674312E-01 -3.62627738E-01 -1.16725463E-01 -7.70299214E-18
  6.65485176E-02  3.68570631E-01 -6.99206369E-02 -1.30451188E-01  6.49789424E-18
  6.68342200E-01 -2.29654815E-01 -4.28467828E-01  2.13423786E-17  2.53744088E-02
  1.34569009E-01  6.58292049E-01  1.00000000E+00
Kinetic Energy Matrix                      R   N=         253
  2.95401398E+01 -2.18540273E+00  1.71121096E+00  0.00000000E+00  0.00000000E+00
  4.25187706E+00  0.00000000E+00  0.00000000E+00  0.00000000E+00  4.25187706E+00
  0.00000000E+00  0.00000000E+00  0.00000000E+00  0.00000000E+00  4.25187706E+00
  1.31282499E-01  4.80047821E-01  0.00000000E+00  0.00000000E+00  0.00000000E+00
  4.05008700E-01  0.00000000E+00  0.00000000E+00  5.47243224E-01  0.00000000E+00
  0.00000000E+00  0.00000000E+00  6.75014500E-01  0.00000000E+00  0.00000000E+00
  0.00000000E+00  5.47243224E-01  0.00000000E+00  0.00000000E+00  0.00000000E+00
  6.75014500E-01  0.00000000E+00  0.00000000E+00  0.00000000E+00  0.00000000E+00
  5.47243224E-01  0.00000000E+00  0.00000000E+00  0.00000000E+00  6.75014500E-01
 -1.98851423E-07 -1.23706786E-02  2.59707522E-02 -6.30883095E-03  1.63649944E-18
 -2.04606005E-03 -3.72196256E-02  9.04141412E-03 -2.34532661E-18  2.95401398E+01
 -1.23706786E-02 -8.01038047E-02  6.21235246E-02 -1.50910844E-02  3.91460025E-18
  1.77057252E-02 -2.06469401E-01  5.01556726E-02 -1.30102916E-17 -2.18540273E+00
  1.71121096E+00 -2.59707522E-02 -6.21235246E-02 -2.38659793E-02 -1.08601785E-05
  2.81711082E-21  8.19925623E-02 -2.44554570E-01  7.52675758E-02 -1.95242742E-17
  0.00000000E+00  0.00000000E+00  4.25187706E+00  6.30883095E-03  1.50910844E-02
 -1.08601785E-05 -2.39080478E-02 -6.84334277E-22 -1.99176832E-02  7.52675758E-02
  4.70057250E-02  4.74284858E-18  0.00000000E+00  0.00000000E+00  0.00000000E+00
  4.25187706E+00 -1.63649944E-18 -3.91460025E-18  2.81711082E-21 -6.84334277E-22
 -2.39106860E-02  5.16661130E-18 -1.95242742E-17  4.74284858E-18  6.52897704E-02
  0.00000000E+00  0.00000000E+00  0.00000000E+00  0.00000000E+00  4.25187706E+00
 -2.04606005E-03  1.77057252E-02 -8.19925623E-02  1.99176832E-02 -5.16661130E-18
  7.78879368E-02 -2.44919908E-01  5.94960932E-02 -1.54331799E-17  1.31282499E-01
  4.80047821E-01  0.00000000E+00  0.00000000E+00  0.00000000E+00  4.05008700E-01
  3.72196256E-02  2.06469401E-01 -2.44554570E-01  7.52675758E-02 -1.95242742E-17
  2.44919908E-01 -2.97289451E-01  1.19593815E-01 -3.10224213E-17  0.00000000E+00
  0.00000000E+00  5.47243224E-01  0.00000000E+00  0.00000000E+00  0.00000000E+00
  6.75014500E-01 -9.04141412E-03 -5.01556726E-02  7.52675758E-02  4.70057250E-02
  4.74284858E-18 -5.94960932E-02  1.19593815E-01  1.65975211E-01  7.53598547E-18
  0.00000000E+00  0.00000000E+00  0.00000000E+00  5.47243224E-01  0.00000000E+00
  0.00000000E+00  0.00000000E+00  6.75014500E-01  2.34532661E-18  1.30102916E-17
 -1.95242742E-17  4.74284858E-18  6.52897704E-02  1.54331799E-17 -3.10224213E-17
  7.53598547E-18  1.95027014E-01  0.00000000E+00  0.00000000E+00  0.00000000E+00
  0.00000000E+00  5.47243224E-01  0.00000000E+00  0.00000000E+00  0.00000000E+00
  6.75014500E-01 -2.35662106E-02  2.57557926E-03  8.85131458E-02  1.65123048E-01
 -8.22453928E-18  1.29455362E-01  1.94093924E-01  3.62086107E-01 -1.80349833E-17
 -1.29269929E-03 -1.95846794E-02 -2.56749898E-02 -8.26402094E-03 -5.45424951E-19
 -2.54031607E-02  1.04706333E-02  3.37018763E-03  2.22432208E-19  1.39567828E+00
  1.99141527E-02  1.03430296E-01  3.95076285E-02  7.37022731E-02 -3.67100321E-18
  1.54706827E-01  9.95434635E-02  1.85700327E-01 -9.24946366E-18 -2.20098737E-03
 -4.98933176E-03  1.78574459E-02  5.74778443E-03  3.79353473E-19  1.63107303E-02
  9.41511019E-02  3.03044590E-02  2.00009272E-18  2.59735083E-01  2.41916700E-01
 -1.29293425E-03 -1.95866570E-02  2.56768114E-02  8.26505366E-03  5.45430633E-19
 -2.54028529E-02 -1.04765401E-02 -3.37227100E-03 -2.22544218E-19 -2.35661957E-02
  2.57580354E-03 -8.85066053E-02 -1.65127097E-01  8.22513334E-18  1.29455538E-01
 -1.94079186E-01 -3.62094247E-01  1.80362491E-17 -9.62815220E-04 -1.15770274E-02
  1.39567828E+00 -2.20079446E-03 -4.98796842E-03 -1.78591778E-02 -5.74865238E-03
 -3.79367302E-19  1.63134974E-02 -9.41554733E-02 -3.03075030E-02 -2.00006452E-18
  1.99141727E-02  1.03430383E-01 -3.95046166E-02 -7.37039075E-02  3.67125977E-18
  1.54706917E-01 -9.95358554E-02 -1.85704409E-01  9.25010827E-18 -1.15770274E-02
 -1.09747294E-02  2.59735083E-01  2.41916700E-01
Nuclear Attraction Matrix                  R   N=         253
 -6.55204506E+01 -5.86777543E+00 -1.45703170E+01  8.73261933E-02  5.95952412E-01
 -1.58386005E+01 -3.86373422E-02 -2.63344410E-01  2.56805995E-02 -1.56319515E+01
  6.79131186E-18  4.63222149E-17 -1.46799592E-17  6.85636438E-18 -1.55548853E+01
 -5.99408656E+00 -1.01131991E+01  5.80639690E-01 -2.53193401E-01  4.48816829E-17
 -1.06137128E+01  1.20333918E-02  3.96081811E-01 -5.96749940E+00  2.91606119E-02
 -1.51495152E-17  1.09230504E+00 -8.96563003E+00 -5.32415601E-03 -1.72268699E-01
  2.91606119E-02 -5.75234437E+00  6.73241782E-18 -4.17936348E-01  1.57106598E-01
 -8.04268594E+00  9.35830518E-19  3.05828984E-17 -1.51495152E-17  6.73241782E-18
 -5.67907387E+00  8.01147803E-17 -6.24178442E-17  2.22178559E-17 -7.83796224E+00
 -2.85020039E-08 -5.02077577E-02  1.44730882E-01 -3.51348963E-02  9.11823466E-18
 -1.16698456E+00  2.87361595E+00 -6.97608938E-01  1.81042253E-16 -6.55204464E+01
 -5.02077610E-02 -7.08326770E-01  1.18942600E+00 -2.89084300E-01  7.49604643E-17
 -2.76575035E+00  5.48805633E+00 -1.32070240E+00  3.44898367E-16 -5.86777443E+00
 -1.45703128E+01 -1.44730892E-01 -1.18942593E+00  1.79067453E+00 -5.10352201E-01
  1.32074161E-16 -2.16363529E+00  2.75915704E+00 -1.03336218E+00  2.67454232E-16
 -8.73267847E-02 -5.95956437E-01 -1.58385934E+01  3.51349000E-02  2.89084530E-01
 -5.10352607E-01 -1.80262176E-01 -3.20924802E-17  5.44361290E-01 -1.08050509E+00
 -1.23272093E+00 -6.70712182E-17  3.86379082E-02  2.63348264E-01  2.56826639E-02
 -1.56319500E+01 -9.11823537E-18 -7.49604783E-17  1.32074191E-16 -3.20924619E-17
 -3.03338760E-01 -1.37725652E-16  2.70940737E-16 -6.49475380E-17 -1.48147578E+00
 -6.79138037E-18 -4.63226813E-17 -1.46799740E-17  6.85664829E-18 -1.55548812E+01
 -1.16698468E+00 -2.76575048E+00  2.16363526E+00 -5.44359853E-01  1.37725544E-16
 -4.83120045E+00  6.06714526E+00 -1.47383242E+00  3.82309896E-16 -5.99408585E+00
 -1.01131958E+01 -5.80643496E-01  2.53197076E-01 -4.48821261E-17 -1.06137085E+01
 -2.87361625E+00 -5.48805665E+00  2.75915634E+00 -1.08050225E+00  2.70940504E-16
 -6.06714474E+00  2.92745699E+00 -1.65767544E+00  4.16300957E-16 -1.20334733E-02
 -3.96084392E-01 -5.96749454E+00  2.91625756E-02 -1.51495299E-17 -1.09231019E+00
 -8.96561871E+00  6.97609025E-01  1.32070352E+00 -1.03336293E+00 -1.23272100E+00
 -6.49475805E-17  1.47383669E+00 -1.65768095E+00 -3.23760690E+00 -1.00915690E-16
  5.32423402E-03  1.72271196E-01  2.91625756E-02 -5.75234478E+00  6.73268176E-18
  4.17942134E-01  1.57112256E-01 -8.04268780E+00 -1.81042273E-16 -3.44898464E-16
  2.67454265E-16 -6.70710989E-17 -1.48147596E+00 -3.82310188E-16  4.16301365E-16
 -1.00915442E-16 -3.59242495E+00 -9.35839959E-19 -3.05831993E-17 -1.51495299E-17
  6.73268176E-18 -5.67907191E+00 -8.01154403E-17 -6.24179037E-17  2.22184968E-17
 -7.83795889E+00 -1.04999817E+00 -2.74259349E+00 -1.32032361E+00 -2.67282159E+00
  1.38193860E-16 -3.84189650E+00 -2.11270421E+00 -4.24825607E+00  2.19011891E-16
 -5.82333521E-03 -9.20978490E-02 -1.60477901E-01 -4.21455460E-02 -4.11224291E-18
 -7.66188187E-01 -1.85379789E+00 -4.71871375E-01 -4.86115969E-17 -8.42713400E+00
 -2.35525759E+00 -4.66664525E+00 -4.98018164E-01 -1.55169182E+00  9.23224720E-17
 -6.20466745E+00 -9.76526680E-01 -3.32691017E+00  2.02054955E-16 -6.06261845E-01
 -1.45940256E+00 -1.00969464E+00 -2.31895730E-01 -2.83343347E-17 -2.81013053E+00
 -3.54325452E+00 -6.77894081E-01 -1.09481122E-16 -5.16213803E+00 -6.84272081E+00
 -5.82465642E-03 -9.21111610E-02  1.60498121E-01  4.21536231E-02  4.11255643E-18
 -7.66241823E-01  1.85389243E+00  4.71925476E-01  4.86118545E-17 -1.05000026E+00
 -2.74260351E+00  1.32021671E+00  2.67288875E+00 -1.38203642E-16 -3.84191384E+00
  2.11253421E+00  4.24836651E+00 -2.19027717E-16 -3.02646271E-03 -2.59814031E-01
 -8.42717166E+00 -6.06297976E-01 -1.45947803E+00  1.00972800E+00  2.31918305E-01
  2.83341675E-17 -2.81023413E+00  3.54331569E+00  6.77954109E-01  1.09479438E-16
 -2.35525860E+00 -4.66665088E+00  4.97954793E-01  1.55172655E+00 -9.23278949E-17
 -6.20468474E+00  9.76384116E-01  3.32699004E+00 -2.02067285E-16 -2.59814377E-01
 -1.28407176E+00 -5.16216270E+00 -6.84275569E+00
Core Hamiltonian Matrix                    R   N=         253
 -3.59803108E+01 -8.05317815E+00 -1.28591061E+01  8.73261933E-02  5.95952412E-01
 -1.15867235E+01 -3.86373422E-02 -2.63344410E-01  2.56805995E-02 -1.13800744E+01
  6.79131186E-18  4.63222149E-17 -1.46799592E-17  6.85636438E-18 -1.13030082E+01
 -5.86280406E+00 -9.63315126E+00  5.80639690E-01 -2.53193401E-01  4.48816829E-17
 -1.02087041E+01  1.20333918E-02  3.96081811E-01 -5.42025618E+00  2.91606119E-02
 -1.51495152E-17  1.09230504E+00 -8.29061553E+00 -5.32415601E-03 -1.72268699E-01
  2.91606119E-02 -5.20510114E+00  6.73241782E-18 -4.17936348E-01  1.57106598E-01
 -7.36767144E+00  9.35830518E-19  3.05828984E-17 -1.51495152E-17  6.73241782E-18
 -5.13183065E+00  8.01147803E-17 -6.24178442E-17  2.22178559E-17 -7.16294774E+00
 -2.27353427E-07 -6.25784363E-02  1.70701634E-01 -4.14437272E-02  1.07547341E-17
 -1.16903062E+00  2.83639633E+00 -6.88567524E-01  1.78696927E-16 -3.59803066E+01
 -6.25784396E-02 -7.88430575E-01  1.25154952E+00 -3.04175384E-01  7.88750645E-17
 -2.74804463E+00  5.28158693E+00 -1.27054673E+00  3.31888075E-16 -8.05317716E+00
 -1.28591018E+01 -1.70701644E-01 -1.25154945E+00  1.76680855E+00 -5.10363061E-01
  1.32076978E-16 -2.08164272E+00  2.51460247E+00 -9.58094607E-01  2.47929958E-16
 -8.73267847E-02 -5.95956437E-01 -1.15867163E+01  4.14437310E-02  3.04175615E-01
 -5.10363467E-01 -2.04170224E-01 -3.20931645E-17  5.24443606E-01 -1.00523752E+00
 -1.18571520E+00 -6.23283696E-17  3.86379082E-02  2.63348264E-01  2.56826639E-02
 -1.13800729E+01 -1.07547348E-17 -7.88750786E-17  1.32077008E-16 -3.20931462E-17
 -3.27249446E-01 -1.32559040E-16  2.51416463E-16 -6.02046894E-17 -1.41618601E+00
 -6.79138037E-18 -4.63226813E-17 -1.46799740E-17  6.85664829E-18 -1.13030042E+01
 -1.16903074E+00 -2.74804475E+00  2.08164270E+00 -5.24442170E-01  1.32558933E-16
 -4.75331251E+00  5.82222535E+00 -1.41433633E+00  3.66876716E-16 -5.86280335E+00
 -9.63314802E+00 -5.80643496E-01  2.53197076E-01 -4.48821261E-17 -1.02086998E+01
 -2.83639662E+00 -5.28158724E+00  2.51460177E+00 -1.00523467E+00  2.51416230E-16
 -5.82222483E+00  2.63016754E+00 -1.53808162E+00  3.85278536E-16 -1.20334733E-02
 -3.96084392E-01 -5.42025132E+00  2.91625756E-02 -1.51495299E-17 -1.09231019E+00
 -8.29060421E+00  6.88567611E-01  1.27054785E+00 -9.58095358E-01 -1.18571527E+00
 -6.02047319E-17  1.41434060E+00 -1.53808714E+00 -3.07163169E+00 -9.33797045E-17
  5.32423402E-03  1.72271196E-01  2.91625756E-02 -5.20510155E+00  6.73268176E-18
  4.17942134E-01  1.57112256E-01 -7.36767330E+00 -1.78696947E-16 -3.31888172E-16
  2.47929991E-16 -6.23282503E-17 -1.41618619E+00 -3.66877008E-16  3.85278944E-16
 -9.33794561E-17 -3.39739793E+00 -9.35839959E-19 -3.05831993E-17 -1.51495299E-17
  6.73268176E-18 -5.13182869E+00 -8.01154403E-17 -6.24179037E-17  2.22184968E-17
 -7.16294439E+00 -1.07356438E+00 -2.74001791E+00 -1.23181047E+00 -2.50769854E+00
  1.29969321E-16 -3.71244114E+00 -1.91861028E+00 -3.88616996E+00  2.00976908E-16
 -7.11603450E-03 -1.11682528E-01 -1.86152890E-01 -5.04095669E-02 -4.65766786E-18
 -7.91591348E-01 -1.84332726E+00 -4.68501187E-01 -4.83891647E-17 -7.03145571E+00
 -2.33534343E+00 -4.56321495E+00 -4.58510535E-01 -1.47798955E+00  8.86514688E-17
 -6.04996062E+00 -8.76983217E-01 -3.14120984E+00  1.92805492E-16 -6.08462833E-01
 -1.46439189E+00 -9.91837198E-01 -2.26147945E-01 -2.79549812E-17 -2.79381980E+00
 -3.44910342E+00 -6.47589622E-01 -1.07481029E-16 -4.90240295E+00 -6.60080411E+00
 -7.11759067E-03 -1.11697818E-01  1.86174932E-01  5.04186768E-02  4.65798706E-18
 -7.91644675E-01  1.84341589E+00  4.68553205E-01  4.83893103E-17 -1.07356645E+00
 -2.74002770E+00  1.23171011E+00  2.50776165E+00 -1.29978509E-16 -3.71245831E+00
  1.91845503E+00  3.88627226E+00 -2.00991467E-16 -3.98927793E-03 -2.71391059E-01
 -7.03149337E+00 -6.08498771E-01 -1.46446600E+00  9.91868818E-01  2.26169653E-01
  2.79548002E-17 -2.79392063E+00  3.44916022E+00  6.47646606E-01  1.07479374E-16
 -2.33534442E+00 -4.56322050E+00  4.58450176E-01  1.47802264E+00 -8.86566352E-17
 -6.04997783E+00  8.76848260E-01  3.14128563E+00 -1.92817177E-16 -2.71391404E-01
 -1.29504649E+00 -4.90242762E+00 -6.60083899E+00
Multipole Matrix (1,0,0)                   R   N=         253
  1.20840195E+00  2.82391338E-01  1.20840195E+00  7.27077806E-02  4.96075284E-01
  1.20840195E+00  0.00000000E+00  0.00000000E+00  0.00000000E+00  1.20840195E+00
  0.00000000E+00  0.00000000E+00  0.00000000E+00  0.00000000E+00  1.20840195E+00
  2.02141188E-01  9.22785000E-01  4.82583279E-01  0.00000000E+00  0.00000000E+00
  1.20840195E+00  1.00190010E-02  3.29089724E-01  6.06038521E-01  0.00000000E+00
  0.00000000E+00  9.62240114E-01  1.20840195E+00  0.00000000E+00  0.00000000E+00
  0.00000000E+00  6.06038521E-01  0.00000000E+00  0.00000000E+00  0.00000000E+00
  1.20840195E+00  0.00000000E+00  0.00000000E+00  0.00000000E+00  0.00000000E+00
  6.06038521E-01  0.00000000E+00  0.00000000E+00  0.00000000E+00  1.20840195E+00
 -7.87536900E-15 -1.57873932E-03  4.51607213E-03 -1.06583586E-03  2.76475911E-19
 -3.75622766E-02  9.34302475E-02 -2.22071922E-02  5.76050584E-18 -1.20840950E+00
  1.57872641E-03 -2.01983338E-07  1.35486711E-02  1.20959982E-03 -3.13768025E-19
 -1.40650133E-01  3.61631374E-01 -6.63616094E-02  1.72140825E-17 -2.82393104E-01
 -1.20840950E+00  4.51603648E-03  1.35480002E-02  5.01232559E-07  7.44178132E-03
 -1.93038473E-18  4.87492575E-03 -4.24364793E-02  1.92865454E-03 -5.00289531E-19
  7.27077806E-02  4.96075284E-01 -1.20840950E+00 -1.06582720E-03  1.20976280E-03
 -7.44207137E-03 -6.05274022E-08 -9.13822109E-24  2.93014589E-02 -7.46407346E-02
 -8.15500711E-02 -3.76115204E-18  0.00000000E+00  0.00000000E+00  0.00000000E+00
 -1.20840950E+00  2.76473665E-19 -3.13810300E-19  1.93045997E-18 -9.13822109E-24
 -9.57559459E-08 -7.60074590E-18  1.93616727E-17 -3.76115204E-18 -9.60496010E-02
  0.00000000E+00  0.00000000E+00  0.00000000E+00  0.00000000E+00 -1.20840950E+00
  3.75620260E-02  1.40648560E-01  4.87616302E-03  2.93011583E-02 -7.60066793E-18
 -1.63865008E-06  4.17459455E-01 -4.99896277E-07  1.29672198E-22 -2.02142451E-01
 -9.22790769E-01  4.82583279E-01  0.00000000E+00  0.00000000E+00 -1.20840950E+00
  9.34296379E-02  3.61628293E-01  4.24379949E-02  7.46401272E-02 -1.93615152E-17
  4.17455340E-01  9.45661409E-07  1.27351393E-01 -3.30347230E-17  1.00190010E-02
  3.29089724E-01 -6.06042310E-01  0.00000000E+00  0.00000000E+00  9.62240114E-01
 -1.20840950E+00 -2.22070441E-02 -6.63608611E-02 -1.92926203E-03  8.15492335E-02
  3.76111376E-18  4.99896277E-07 -1.27352648E-01 -1.48614877E-06 -3.95585670E-23
  0.00000000E+00  0.00000000E+00  0.00000000E+00 -6.06042310E-01  0.00000000E+00
  0.00000000E+00  0.00000000E+00 -1.20840950E+00  5.76046743E-18  1.72138884E-17
  5.00447111E-19  3.76111376E-18  9.60486158E-02 -1.29672198E-22  3.30350487E-17
 -3.95585670E-23 -1.63865008E-06  0.00000000E+00  0.00000000E+00  0.00000000E+00
  0.00000000E+00 -6.06042310E-01  0.00000000E+00  0.00000000E+00  0.00000000E+00
 -1.20840950E+00  3.88249152E-02  3.59770780E-01  3.00132001E-01  3.69620706E-01
 -1.84102707E-17  7.56436048E-01  7.21682184E-01  9.43976469E-01 -4.70180974E-17
 -1.85842317E-04  6.70857456E-04  3.88450931E-03  2.17882997E-04  1.43802665E-20
  9.02045075E-02  2.66828693E-01  7.22995401E-02  4.77176588E-18  2.09266581E+00
  8.15370086E-02  4.92613018E-01  3.37504728E-01  1.72268305E-01 -8.58043413E-18
  1.02862577E+00  1.15871659E+00  6.59428000E-01 -3.28451513E-17 -1.97901960E-02
 -8.34020950E-02  1.20668543E-02 -1.98986024E-02 -1.31330672E-18  7.35553990E-03
  3.49996172E-01  3.03724137E-03  2.00457772E-19  1.37758526E+00  2.09266581E+00
  1.85883009E-04 -6.70816582E-04  3.88481645E-03  2.17840118E-04  1.43757897E-20
 -9.02079043E-02  2.66835707E-01  7.23047339E-02  4.77156209E-18 -3.88250672E-02
 -3.59766355E-01  3.00114676E-01  3.69624514E-01 -1.84113387E-17 -7.56419419E-01
  7.21632209E-01  9.43975897E-01 -4.70203120E-17  7.00003633E-09 -3.27552446E-02
 -2.09260538E+00  1.97912573E-02  8.34066320E-02  1.20686583E-02 -1.99003455E-02
 -1.31327133E-18 -7.35076592E-03  3.50002693E-01  3.03537154E-03  2.00311418E-19
 -8.15374650E-02 -4.92612381E-01  3.37497700E-01  1.72271948E-01 -8.58102496E-18
 -1.02861414E+00  1.15868567E+00  6.59434743E-01 -3.28470541E-17  3.27567781E-02
  4.06623581E-06 -1.37754548E+00 -2.09260538E+00
Multipole Matrix (0,1,0)                   R   N=         253
 -2.93544683E-01 -6.85984293E-02 -2.93544683E-01  0.00000000E+00  0.00000000E+00
 -2.93544683E-01  7.27077806E-02  4.96075284E-01  0.00000000E+00 -2.93544683E-01
  0.00000000E+00  0.00000000E+00  0.00000000E+00  0.00000000E+00 -2.93544683E-01
 -4.91040839E-02 -2.24162688E-01  0.00000000E+00  4.82583279E-01  0.00000000E+00
 -2.93544683E-01  0.00000000E+00  0.00000000E+00 -1.47218717E-01  0.00000000E+00
  0.00000000E+00  0.00000000E+00 -2.93544683E-01  1.00190010E-02  3.29089724E-01
  0.00000000E+00 -1.47218717E-01  0.00000000E+00  9.62240114E-01  0.00000000E+00
 -2.93544683E-01  0.00000000E+00  0.00000000E+00  0.00000000E+00  0.00000000E+00
 -1.47218717E-01  0.00000000E+00  0.00000000E+00  0.00000000E+00 -2.93544683E-01
  4.11304116E-15  3.83510119E-04 -1.06584084E-03  3.87397557E-04 -6.71620104E-20
  9.12468612E-03 -2.22072773E-02  7.40736350E-03 -1.39935095E-18  2.93548628E-01
 -3.83503378E-04  1.05489125E-07  1.20950612E-03  1.82342610E-02  7.62148150E-20
  3.41670359E-02 -6.63620396E-02  1.04569786E-01 -4.18168252E-18  6.85993513E-02